SLURM has assigned the following compute nodes to this run:
p0182
Input file supplied : /users/PCON0010/danilk/An-OpenMolcas2023-Inter-Tests/MTDP-Tests/GS-DFT-EQUIL/MTDP-GS-DFT-147.G.tmp.inp
----- GAMESS execution script 'rungms-dev' -----
This job is running on host p0182.ten.osc.edu
under operating system Linux at Tue Jan 24 14:06:19 EST 2023 with sockets communication mode
Available scratch disk space (Kbyte units) at beginning of the job is
Filesystem             1K-blocks     Used Available Use% Mounted on
/dev/mapper/vg0-lv_tmp 858896636 10711448 848185188   2% /tmp
GAMESS temporary binary files will be written to /tmp/slurmtmp.14539908/14539908
GAMESS supplementary output files will be written to /users/PCON0010/danilk/restart
Copying input file MTDP-GS-DFT-147.G.tmp.inp to your run's scratch directory...
rm /users/PCON0010/danilk/restart/MTDP-GS-DFT-147.G.tmp.dat
 
Assuming a single but multicore node.
 
The generated host list is
p0182.ten.osc.edu:cpus=12
-----debug-----
the execution path is
/opt/osc/bin /apps/xalt/xalt/bin /apps/python/3.6-conda5.2/bin /opt/mvapich2/intel/2021.3/2.3.6/bin /apps/gnu/10.3.0/bin /opt/intel/2021.3/itac/2021.3.0/bin /opt/intel/2021.3/advisor/2021.3.0/bin64 /opt/intel/2021.3/vtune/2021.5.0/bin64 /opt/intel/2021.3/inspector/2021.3.0/bin64 /opt/intel/2021.3/compiler/2021.3.0/linux/bin /opt/intel/2021.3/compiler/2021.3.0/linux/bin/intel64 /apps/software_usage /usr/lib64/qt-3.3/bin /opt/osc/bin /usr/local/bin /usr/bin /usr/local/sbin /usr/sbin /opt/ibutils/bin /opt/puppetlabs/bin /users/PCON0010/danilk/Apps/OpenMolcas-Interface/OpenMolcas/build /opt/puppetlabs/bin
the library path is
/users/PCON0010/danilk/Apps/OpenMolcas-Interface/OpenMolcas/lib:/apps/python/3.6-conda5.2/lib:/opt/mvapich2/intel/2021.3/2.3.6/lib:/apps/gnu/10.3.0/lib64:/apps/gnu/10.3.0/lib:/opt/intel/2021.3/itac/2021.3.0/slib:/opt/intel/2021.3/debugger/10.1.2/dep/lib:/opt/intel/2021.3/debugger/10.1.2/gdb/intel64/lib:/opt/intel/2021.3/compiler/2021.3.0/linux/lib:/opt/intel/2021.3/compiler/2021.3.0/linux/lib/x64:/opt/intel/2021.3/compiler/2021.3.0/linux/lib/emu:/opt/intel/2021.3/compiler/2021.3.0/linux/compiler/lib/intel64_lin:/opt/intel/2021.3/dal/2021.3.0/lib/intel64:/opt/intel/2021.3/ippcp/2021.3.0/lib/intel64:/opt/intel/2021.3/ipp/2021.3.0/lib/intel64:/opt/intel/2021.3/mkl/2021.3.0/lib/intel64:/opt/intel/2021.3/tbb/2021.3.0/lib/intel64/gcc4.8
The dynamically linked libraries for this binary are
/users/PCON0010/danilk/Apps/gamess-2021-ESPF-REKS-LINK/gamess.01.x :

	linux-vdso.so.1 =>  (0x00007ffe6c73d000)
	/apps/xalt/xalt/lib64/libxalt_init.so (0x00007fb8eace9000)
	libdl.so.2 => /lib64/libdl.so.2 (0x00007fb8eaae5000)
	libpthread.so.0 => /lib64/libpthread.so.0 (0x00007fb8ea8c9000)
	libgfortran.so.5 => /apps/gnu/10.3.0/lib64/libgfortran.so.5 (0x00007fb8ea414000)
	libm.so.6 => /lib64/libm.so.6 (0x00007fb8ea112000)
	libgcc_s.so.1 => /apps/python/3.6-conda5.2/lib/libgcc_s.so.1 (0x00007fb8eb0e4000)
	libquadmath.so.0 => /apps/python/3.6-conda5.2/lib/libquadmath.so.0 (0x00007fb8eb0af000)
	libc.so.6 => /lib64/libc.so.6 (0x00007fb8e9d44000)
	/lib64/ld-linux-x86-64.so.2 (0x00007fb8eaf24000)
--------------

 Distributed Data Interface kickoff program.
 Initiating 12 compute processes on 1 nodes to run the following command:
 /users/PCON0010/danilk/Apps/gamess-2021-ESPF-REKS-LINK/gamess.01.x MTDP-GS-DFT-147.G.tmp 

          *******************************************************
          *                                                     *
          *      GAMESS VERSION = 30 SEP 2021 (R2 Patch 1)      *
          *                                                     *
          *              doi.org/10.1063/5.0005188              *
          *                                                     *
          **************** 64 BIT LINUX VERSION *****************

  GAMESS HAS BEEN MADE POSSIBLE WITH IMPORTANT CONTRIBUTIONS FROM
  THE FOLLOWING INDIVIDUALS (IN ALPHABETICAL ORDER):

     IVANA ADAMOVIC, CHRISTINE AIKENS, TOMOKO AKAMA,
     YURI ALEXEEV, YURIKO AOKI, POOJA ARORA, TOSHIO ASADA,
     ANDREY ASADCHEV, YONG SU BAEK, KIM K. BALDRIDGE,
     PRADIPTA BANDYOPADHYAY, TAYLOR A. BARNES, MARIA BARYSZ,
     ROB BELL, JONATHAN BENTZ, COLLEEN BERTONI,
     JERRY A. BOATZ, BRETT BODE, KURT BRORSEN, KURT R. BRORSEN,
     LAIMUTIS BYTAUTAS, CALEB CARLIN, LAURA CARRINGTON,
     GALINA CHABAN, BENOIT CHAMPAGNE, WEI CHEN, MAHITO CHIBA,
     DAN CHIPMAN, CHEOL HO CHOI, TANNER CULPITT,
     DIPAYAN DATTA, PAUL DAY, ALBERT DEFUSCO,
     NUWAN DESILVA, J. EMILIANO DEUSTUA,
     TIM DUDLEY, MICHEL DUPUIS, STEVEN T. ELBERT,
     DMITRI FEDOROV, MICHAEL FILATOV, ALEX FINDLATER,
     GRAHAM FLETCHER, MARK FREITAG, CHRISTIAN FRIEDL,
     DAVID GARMER, IGOR S. GERASIMOV, KURT GLAESEMANN,
     MARK S. GORDON, JEFFREY GOUR, FENG LONG GU,
     EMILIE B. GUIDEZ, ANASTASIA GUNINA, SHARON HAMMES-SCHIFFER,
     MASATAKE HARUTA, KIMIHIKO HIRAO, YASUHIRO IKABATA,
     TZVETELIN IORDANOV, STEPHAN IRLE, KAZUYA ISHIMURA,
     JOE IVANIC, FRANK JENSEN, JAN H. JENSEN, VISVALDAS KAIRYS,
     MUNEAKI KAMIYA, MICHIO KATOUDA, NAOAKI KAWAKAMI, DAN KEMP,
     BERNARD KIRTMAN, KAZUO KITAURA, MARIUSZ KLOBUKOWSKI,
     MASATO KOBAYASHI, KONSTANTIN KOMAROV, PRAKASHAN KORAMBATH,
     JACEK KORCHOWIEC, SHIRO KOSEKI, KAROL KOWALSKI,
     JIMMY KROMANN, STANISLAW KUCHARSKI, HENRY KURTZ,
     SAROM SOK LEANG, SEUNGHOON LEE, HUI LI, SHUHUA LI, WEI LI,
     JESSE LUTZ, ALEKSANDR O. LYKHIN, MARCIN MAKOWSKI,
     JOANI MATO, NIKITA MATSUNAGA, BENEDETTA MENNUCCI,
     GRANT MERRILL, NORIYUKI MINEZAWA, VLADIMIR MIRONOV,
     EISAKU MIYOSHI, JOHN A. MONTGOMERY JR., HIROTOSHI MORI,
     JONATHAN MULLIN, MONIKA MUSIAL, SHIGERU NAGASE,
     TAKESHI NAGATA, HIROMI NAKAI, TAKAHITO NAKAJIMA,
     YUYA NAKAJIMA, HARUYUKI NAKANO, HIROYA NAKATA, SEAN NEDD,
     HEATHER NETZLOFF, KIET A. NGUYEN, YOSHIO NISHIMOTO,
     BOSILJKA NJEGIC, RYAN OLSON, MIKE PAK, ROBERTO PEVERATI,
     BUU PHAM, PIOTR PIECUCH, ANNA POMOGAEVA, DAVID POOLE,
     SPENCER PRUITT, OLIVIER QUINET, LUKE ROSKOP,
     KLAUS RUEDENBERG, ANDREW SAND, TOSAPORN SATTASATHUCHANA,
     NOZOMI SAWADA, MICHAEL W. SCHMIDT, PATRICK E. SCHNEIDER,
     JUNJI SEINO, PRACHI SHARMA, JUN SHEN, JIM SHOEMAKER,
     YINAN SHU, DEJUN SI, JONATHAN SKONE, LYUDMILA SLIPCHENKO,
     TONY SMITH, JIE SONG, MARK SPACKMAN, CASPER STEINMANN,
     WALT STEVENS, PEIFENG SU, SHUJUN SU, CHET SWALINA,
     TETSUYA TAKETSUGU, ZHEN TAO, NANDUN THELLAMUREGE
     SEIKEN TOKURA, JACOPO TOMASI, TSUGUKI TOUMA, TAKAO TSUNEDA,
     HIROAKI UMEDA, JORGE LUIS GALVEZ VALLEJO, YALI WANG,
     SIMON WEBB, AARON WEST, THERESA L. WINDUS, MARTA WLOCH,
     PENG XU, KIYOSHI YAGI, SUSUMU YANAGISAWA, YANG YANG,
     SOOHAENG YOO, TAKESHI YOSHIKAWA, FEDERICO ZAHARIEV,
     TOBY ZENG

  WHO ARE SUPPORTED BY THEIR INSTITUTION/UNIVERSITY/COMPANY/GROUP
  (IN ALPHABETICAL ORDER):

     EP ANALYTICS, FACULTES UNIVERSITAIRES NOTRE-DAME DE LA PAIX,
     INSTITUTE FOR MOLECULAR SCIENCE, IOWA STATE UNIVERSITY,
     JACKSON STATE UNIVERSITY, JOHANNES KEPLER UNIVERSITY LINZ,
     KYUNGPOOK NATIONAL UNIVERSITY
     KYUSHU UNIVERSITY, MICHIGAN STATE UNIVERSITY,
     MIE UNIVERSITY, THE MOLECULAR SCIENCES SOFTWARE INSTITUTE,
     MOSCOW STATE UNIVERSITY,
     N. COPERNICUS UNIVERSITY, NAGOYA UNIVERSITY,
     NANJING UNIVERSITY, NAT. INST. OF ADVANCED INDUSTRIAL
     SCIENCE AND TECHNOLOGY, NATIONAL INST. OF STANDARDS AND
     TECHNOLOGY, NESMEYANOV INSTITUTE OF ORGANOELEMENT COMPOUNDS
     OF RUSSIAN ACADEMY OF SCIENCES, OSAKA PREFECTURE UNIVERSITY,
     PENNSYLVANIA STATE UNIVERSITY, TOKYO INSTITUTE OF TECHNOLOGY,
     UNIVERSITY OF AARHUS, UNIVERSITY OF ALBERTA,
     UNIVERSITY OF CALIFORNIA AT SANTA BARBARA,
     UNIVERSITY OF COPENHAGEN, UNIVERSITY OF IOWA,
     UNIVERSITY OF MEMPHIS, UNIVERSITY OF MINNESOTA,
     UNIVERSITY OF NEBRASKA, UNIVERSITY OF NEW ENGLAND,
     UNIVERSITY OF NOTRE DAME, UNIVERSITY OF PISA,
     UNIVERSITY OF SILESIA, UNIVERSITY OF TOKYO,
     UNIVERSITY OF ZURICH, WASEDA UNIVERSITY, YALE UNIVERSITY

  GAMESS SOFTWARE MANAGEMENT TEAM FOR THIS RELEASE:
     MARK S. GORDON (TEAM LEAD),
     BRETT BODE (SENIOR ADVISOR),
     GIUSEPPE BARCA,
     COLLEEN BERTONI,
     KRISTOPHER KEIPERT (ADVISOR),
     SAROM S. LEANG (DEVELOPMENT LEAD),
     BUU PHAM,
     JORGE LUIS GALVEZ VALLEJO (WEBSITE ADMINISTRATOR),
     PENG XU


 PARALLEL VERSION RUNNING ON       12 PROCESSORS IN        1 NODES.

 EXECUTION OF GAMESS BEGUN 14:06:20 24-JAN-2023    

            ECHO OF THE FIRST FEW INPUT CARDS -
 INPUT CARD> $SYSTEM MWORDS=500 $END                                                        
 INPUT CARD> $CONTRL SCFTYP=RHF dfttyp=bhhlyp ICHARG=0                                      
 INPUT CARD>  RUNTYP=GRADIENT COORD=TINKER $END                                             
 INPUT CARD> $basis gbasis=n31 ngauss=6 ndfunc=1 $end                                       
 INPUT CARD> $guess guess=moread norb=107 $end                                              
 INPUT CARD> $dft sg1=.true. $end                                                           
 INPUT CARD> $LINK ESPF=.T.                                                                 
 INPUT CARD>  IQMATM(1)=                                                                    
 INPUT CARD>  1,2,3,4,5,6,7,8,9,10,                                                         
 INPUT CARD>  11,12,13,14,15,16,17,                                                         
 INPUT CARD>  18,19,20,21,22,23,24,                                                         
 INPUT CARD>  25,26,27,28,29,30,31,                                                         
 INPUT CARD>  32,33,34                                                                      
 INPUT CARD>  RADMM=300.0                                                                   
 INPUT CARD> $END                                                                           
 INPUT CARD> $TINKEY                                                                        
 INPUT CARD>parameters /users/PCON0010/danilk/TINKER_PRM/OPLS-AA-MTDP.prm                   
 INPUT CARD>extraterm none                                                                  
 INPUT CARD>ACTIVE -1 220                                                                   
 INPUT CARD> $END                                                                           
 INPUT CARD> $TINXYZ                                                                        
 INPUT CARD>5470                                                                            
 INPUT CARD>1 N 29.575058269227 33.068463381728 27.175997600088 910 2 29 34                 
 INPUT CARD>2 C 28.763079270340 32.727005378445 28.176422957950 911 1 4 5                   
 INPUT CARD>3 CT 30.460111905716 30.959310680859 27.687189911633 912 4 29 30 31             
 INPUT CARD>4 C= 29.183120529007 31.314008576431 28.531630858405 913 2 3 6                  
 INPUT CARD>5 O 27.847586384158 33.382254477447 28.673896409138 914 2                       
 INPUT CARD>6 C= 28.463339355371 30.429474262128 29.148310875397 915 4 7 8                  
 INPUT CARD>7 CT 27.275995089962 30.824571624104 29.995427381786 916 6 9 24 25              
 INPUT CARD>8 CM 28.580987104268 28.927699408998 29.441371061585 917 6 10 13                
 INPUT CARD>9 CT 26.402421775634 29.557638323252 30.364044546919 918 7 10 11 12             
 INPUT CARD>10 CP 27.400226810588 28.560632069521 29.980699545812 919 8 9 15                
 INPUT CARD>11 HC 25.482861322836 29.576044988525 29.770626032544 920 9                     
 INPUT CARD>12 HC 26.120551853733 29.395437351620 31.430886418369 921 9                     
 INPUT CARD>13 CS 29.580230899190 27.854165359785 29.323332954191 922 8 14 16               
 INPUT CARD>14 CB 29.004062853479 26.645949868481 29.644965790869 923 13 15 18              
 INPUT CARD>15 SA 27.341245612757 26.870220392795 30.203937972527 924 10 14                 
 INPUT CARD>16 CA 30.969843154771 27.934701667436 29.109626578712 925 13 17 20              
 INPUT CARD>17 CA 31.694373686149 26.728249252225 29.129816429012 926 16 19 21              
 INPUT CARD>18 CA 29.834430321695 25.509736812569 29.837237276795 927 14 19 22              
 INPUT CARD>19 CA 31.116354517485 25.554624835801 29.532560655128 928 17 18 23              
 INPUT CARD>20 HA 31.619220247458 28.776978021317 29.054583989366 929 16                    
 INPUT CARD>21 HA 32.760906617861 26.711045792546 29.014937796905 930 17                    
 INPUT CARD>22 HA 29.470398723366 24.495150433595 30.057361251343 931 18                    
 INPUT CARD>23 HA 31.725255995268 24.689525161995 29.693843846039 932 19                    
 INPUT CARD>24 CT 27.732166291086 31.507070118411 31.330087897570 933 7 26 27 28            
 INPUT CARD>25 HC 26.607231121073 31.559959747984 29.581270221155 934 7                     
 INPUT CARD>26 HC 28.451627630346 30.961134200975 31.999497684513 935 24                    
 INPUT CARD>27 HC 26.762114936756 31.739050890325 31.744243540314 936 24                    
 INPUT CARD>28 HC 28.228608492698 32.410658484525 31.073003335569 937 24                    
    500000000 WORDS OF MEMORY AVAILABLE
 ---- QMMM procedure is ON ----

     ######################################################################
   ##########################################################################
  ###                                                                      ###
 ###            Tinker  ---  Software Tools for Molecular Design            ###
 ##                                                                          ##
 ##                       Version 8.10.1  October 2021                       ##
 ##                                                                          ##
 ##               Copyright (c)  Jay William Ponder  1990-2021               ##
 ###                           All Rights Reserved                          ###
  ###                                                                      ###
   ##########################################################################
     ######################################################################
     ###       ESPF QM/MM modifications implemented in 2022             ###
     ###       by Miquel Huix-Rotllant (Aix-Marseille University)       ###
     ######################################################################


 ----------------------------------------------------------------------------
           Cartesian Coordinates of Atoms in Bulk Model (ANGS)
 ----------------------------------------------------------------------------
  5470
     1  N     29.575058   33.068463   27.175998   910     2    29    34
     2  C     28.763079   32.727005   28.176423   911     1     4     5
     3  CT    30.460112   30.959311   27.687190   912     4    29    30    31
     4  C=    29.183121   31.314009   28.531631   913     2     3     6
     5  O     27.847586   33.382254   28.673896   914     2
     6  C=    28.463339   30.429474   29.148311   915     4     7     8
     7  CT    27.275995   30.824572   29.995427   916     6     9    24    25
     8  CM    28.580987   28.927699   29.441371   917     6    10    13
     9  CT    26.402422   29.557638   30.364045   918     7    10    11    12
    10  CP    27.400227   28.560632   29.980700   919     8     9    15
    11  HC    25.482861   29.576045   29.770626   920     9
    12  HC    26.120552   29.395437   31.430886   921     9
    13  CS    29.580231   27.854165   29.323333   922     8    14    16
    14  CB    29.004063   26.645950   29.644966   923    13    15    18
    15  SA    27.341246   26.870220   30.203938   924    10    14
    16  CA    30.969843   27.934702   29.109627   925    13    17    20
    17  CA    31.694374   26.728249   29.129816   926    16    19    21
    18  CA    29.834430   25.509737   29.837237   927    14    19    22
    19  CA    31.116355   25.554625   29.532561   928    17    18    23
    20  HA    31.619220   28.776978   29.054584   929    16
    21  HA    32.760907   26.711046   29.014938   930    17
    22  HA    29.470399   24.495150   30.057361   931    18
    23  HA    31.725256   24.689525   29.693844   932    19
    24  CT    27.732166   31.507070   31.330088   933     7    26    27    28
    25  HC    26.607231   31.559960   29.581270   934     7
    26  HC    28.451628   30.961134   31.999498   935    24
    27  HC    26.762115   31.739051   31.744244   936    24
    28  HC    28.228608   32.410658   31.073003   937    24
    29  CT    30.241961   32.025292   26.563343   938     1     3    32    33
    30  HC    30.375125   29.901469   27.441762   939     3
    31  HC    31.370218   31.054003   28.212646   940     3
    32  HC    31.192020   32.388265   26.292089   941    29
    33  HC    29.906200   31.561759   25.663718   942    29
    34  H     29.371630   33.918369   26.628882   943     1
    35  CT    22.908067   28.450732   31.283195    99    36    37    38    39
    36  HC    23.389404   28.285810   30.299955    98    35
    37  HC    23.685114   28.378295   32.032763    98    35
    38  HC    22.478881   29.520738   31.385723    98    35
    39  OH    21.862788   27.576028   31.665994    96    35    40
    40  HO    21.407544   27.345244   30.853615    97    39
    41  CT    32.773770   25.774185   26.082243    99    42    43    44    45
    42  HC    31.977513   25.107434   25.760825    98    41
    43  HC    33.207647   25.479929   27.058592    98    41
    44  HC    32.323068   26.739069   26.348098    98    41
    45  OH    33.839279   25.973505   25.080715    96    41    46
    46  HO    33.925154   25.127997   24.683466    97    45
    47  CT    34.970300   29.204925   29.598588    99    48    49    50    51
    48  HC    34.073078   29.793333   29.898769    98    47
    49  HC    35.711030   29.746176   30.099189    98    47
    50  HC    35.098968   29.097029   28.526266    98    47
    51  OH    34.788703   27.948275   30.124869    96    47    52
    52  HO    34.322113   28.018204   30.947889    97    51
    53  CT    30.810506   35.953394   26.293766    99    54    55    56    57
    54  HC    31.647362   35.396205   25.886980    98    53
    55  HC    30.843008   37.016848   25.991341    98    53
    56  HC    30.718180   35.945060   27.390950    98    53
    57  OH    29.578972   35.394585   25.820740    96    53    58
    58  HO    29.299455   36.044104   25.193826    97    57
    59  CT    33.965415   23.501109   31.836038    99    60    61    62    63
    60  HC    34.608499   23.614820   32.734260    98    59
    61  HC    34.014863   24.311106   31.172520    98    59
    62  HC    32.983091   23.474280   32.361467    98    59
    63  OH    34.079138   22.233208   31.222153    96    59    64
    64  HO    35.007095   22.275885   30.972846    97    63
    65  CT    25.744820   34.577834   33.409328    99    66    67    68    69
    66  HC    25.984146   33.552456   32.947600    98    65
    67  HC    25.226776   34.526905   34.341190    98    65
    68  HC    25.262582   35.037379   32.510750    98    65
    69  OH    26.961181   35.232429   33.689152    96    65    70
    70  HO    27.426050   35.120149   32.834521    97    69
    71  CT    25.613088   30.570214   34.811866    99    72    73    74    75
    72  HC    26.246171   31.333629   35.403820    98    71
    73  HC    25.099481   29.921062   35.485852    98    71
    74  HC    26.319812   29.862689   34.277228    98    71
    75  OH    24.635175   30.944287   33.851058    96    71    76
    76  HO    23.918632   31.347124   34.382327    97    75
    77  CT    30.240039   29.344724   24.399598    99    78    79    80    81
    78  HC    29.309937   29.840706   24.623052    98    77
    79  HC    31.072004   29.823473   24.883863    98    77
    80  HC    30.181462   28.379851   24.887855    98    77
    81  OH    30.368321   29.047440   23.025356    96    77    82
    82  HO    31.208520   28.554223   22.978103    97    81
    83  CT    33.294518   33.333340   29.702677    99    84    85    86    87
    84  HC    33.610016   32.290877   29.495902    98    83
    85  HC    34.059327   33.886389   30.251583    98    83
    86  HC    32.337777   33.335182   30.317531    98    83
    87  OH    33.114707   33.920005   28.366349    96    83    88
    88  HO    33.376282   33.277836   27.734198    97    87
    89  CT    28.323124   36.330739   30.407424    99    90    91    92    93
    90  HC    28.256283   36.957760   31.316006    98    89
    91  HC    27.459181   36.590672   29.748726    98    89
    92  HC    29.339183   36.464288   30.006516    98    89
    93  OH    28.226136   35.004554   30.890393    96    89    94
    94  HO    28.382260   34.431594   30.167399    97    93
    95  CT    30.657304   22.471617   27.442942    99    96    97    98    99
    96  HC    31.766609   22.290859   27.495278    98    95
    97  HC    30.409791   22.475099   26.364901    98    95
    98  HC    30.338109   23.347887   27.984160    98    95
    99  OH    29.957097   21.417115   27.970856    96    95   100
   100  HO    30.274473   20.633200   27.526659    97    99
   101  CT    24.738767   34.265301   28.995827    99   102   103   104   105
   102  HC    24.771872   34.724838   28.009182    98   101
   103  HC    24.578565   35.057986   29.761703    98   101
   104  HC    25.579461   33.623074   28.991319    98   101
   105  OH    23.614660   33.466524   28.896789    96   101   106
   106  HO    23.400348   33.139863   29.764093    97   105
   107  CT    31.554016   27.299190   33.121918    99   108   109   110   111
   108  HC    30.559960   26.997043   32.938401    98   107
   109  HC    31.478760   28.163433   33.824560    98   107
   110  HC    31.940079   27.608792   32.164828    98   107
   111  OH    32.256766   26.225933   33.801820    96   107   112
   112  HO    33.185530   26.455012   34.027546    97   111
   113  CT    27.168737   23.982079   27.720579    99   114   115   116   117
   114  HC    27.052698   23.175861   26.919923    98   113
   115  HC    28.302996   24.222164   27.763447    98   113
   116  HC    26.617902   24.860868   27.510609    98   113
   117  OH    26.719146   23.426427   28.903674    96   113   118
   118  HO    27.414570   22.953862   29.284560    97   117
   119  CT    32.078304   30.757420   31.900619    99   120   121   122   123
   120  HC    31.186390   30.350903   32.320887    98   119
   121  HC    32.179663   31.719980   32.305176    98   119
   122  HC    31.865209   30.811840   30.812117    98   119
   123  OH    33.241646   30.064870   32.194426    96   119   124
   124  HO    33.430800   30.084319   33.099795    97   123
   125  CT    28.745618   21.084681   31.206444    99   126   127   128   129
   126  HC    28.321917   21.319894   32.251989    98   125
   127  HC    27.989385   20.600763   30.643993    98   125
   128  HC    29.662813   20.565789   31.446068    98   125
   129  OH    29.070191   22.241775   30.394303    96   125   130
   130  HO    29.550306   22.039364   29.557522    97   129
   131  CT    29.513752   31.326400   35.112037    99   132   133   134   135
   132  HC    29.955727   30.445676   34.612840    98   131
   133  HC    28.619604   31.486824   34.504774    98   131
   134  HC    30.301220   32.095414   35.282038    98   131
   135  OH    29.002828   30.904891   36.449010    96   131   136
   136  HO    28.754269   29.981035   36.375928    97   135
   137  CT    23.377681   30.386123   27.909461    99   138   139   140   141
   138  HC    24.287148   30.810306   28.470582    98   137
   139  HC    22.500918   30.502979   28.571283    98   137
   140  HC    23.292049   30.892659   26.977633    98   137
   141  OH    23.456473   28.996313   27.496914    96   137   142
   142  HO    23.093374   28.984757   26.609459    97   141
   143  CT    25.642863   26.283044   35.027395    99   144   145   146   147
   144  HC    25.603284   26.391761   33.968908    98   143
   145  HC    25.907460   25.257368   35.263765    98   143
   146  HC    26.501350   26.900670   35.424503    98   143
   147  OH    24.476025   26.620450   35.646206    96   143   148
   148  HO    24.645027   26.819043   36.584759    97   147
   149  CT    26.970071   29.057512   26.067458    99   150   151   152   153
   150  HC    27.395461   29.035311   25.061038    98   149
   151  HC    26.098493   29.691910   26.257707    98   149
   152  HC    27.809372   29.361474   26.635354    98   149
   153  OH    26.542434   27.785750   26.485018    96   149   154
   154  HO    26.157289   27.877412   27.361418    97   153
   155  CT    22.286529   32.839044   31.731229    99   156   157   158   159
   156  HC    22.553100   33.846999   32.080761    98   155
   157  HC    21.983196   32.437606   32.693343    98   155
   158  HC    21.425014   32.898952   31.092401    98   155
   159  OH    23.499358   32.150831   31.290022    96   155   160
   160  HO    24.083145   31.984313   32.035938    97   159
   161  CT    28.971416   39.046502   27.597055    99   162   163   164   165
   162  HC    28.452031   39.778485   26.935744    98   161
   163  HC    30.013425   39.165978   27.276547    98   161
   164  HC    28.649596   38.015774   27.357585    98   161
   165  OH    28.736119   39.340524   28.924755    96   161   166
   166  HO    27.941622   38.872194   29.029224    97   165
   167  CT    29.490551   23.944674   33.475939    99   168   169   170   171
   168  HC    30.122330   24.217315   32.597205    98   167
   169  HC    28.410323   24.111164   33.354158    98   167
   170  HC    29.521716   22.803510   33.560765    98   167
   171  OH    30.056060   24.619319   34.532763    96   167   172
   172  HO    30.751206   25.201316   34.128147    97   171
   173  CT    30.747251   34.682495   33.776823    99   174   175   176   177
   174  HC    29.907898   34.066808   33.438039    98   173
   175  HC    30.560286   35.542543   33.191204    98   173
   176  HC    30.624283   34.851927   34.862162    98   173
   177  OH    32.086159   34.323166   33.516067    96   173   178
   178  HO    32.662184   35.134557   33.300722    97   177
   179  CT    33.812693   37.778724   28.589470    99   180   181   182   183
   180  HC    34.792455   37.836611   29.021181    98   179
   181  HC    33.777917   38.758500   27.965337    98   179
   182  HC    33.107880   38.056337   29.348834    98   179
   183  OH    33.711297   36.679516   27.757179    96   179   184
   184  HO    33.221720   35.991038   28.133115    97   183
   185  CT    25.723664   32.128414   23.651246    99   186   187   188   189
   186  HC    26.556042   31.492416   23.448904    98   185
   187  HC    25.802461   33.004237   23.054624    98   185
   188  HC    24.876313   31.545645   23.381775    98   185
   189  OH    25.723140   32.302041   25.040600    96   185   190
   190  HO    24.955965   32.769071   25.274748    97   189
   191  CT    28.990148   32.117072   21.646641    99   192   193   194   195
   192  HC    28.161928   32.567314   20.942851    98   191
   193  HC    29.190682   32.617478   22.619797    98   191
   194  HC    29.913696   32.181380   21.075550    98   191
   195  OH    28.594723   30.789784   21.604948    96   191   196
   196  HO    29.302964   30.199329   21.900101    97   195
   197  CT    33.133371   34.393564   22.010034    99   198   199   200   201
   198  HC    33.304375   34.125325   23.010959    98   197
   199  HC    32.956049   35.486329   21.872426    98   197
   200  HC    34.038524   34.165964   21.425196    98   197
   201  OH    32.085209   33.690523   21.325756    96   197   202
   202  HO    32.132466   33.895207   20.411571    97   201
   203  CT    27.898708   35.524283   22.711932    99   204   205   206   207
   204  HC    27.100959   34.974899   23.127158    98   203
   205  HC    27.696409   35.884628   21.698873    98   203
   206  HC    28.746702   34.862739   22.502213    98   203
   207  OH    28.332498   36.558155   23.508270    96   203   208
   208  HO    29.100050   36.880815   22.933599    97   207
   209  CT    35.620702   26.542389   32.817769    99   210   211   212   213
   210  HC    36.698379   26.776326   32.991040    98   209
   211  HC    35.320593   26.381908   31.762485    98   209
   212  HC    35.472504   25.653411   33.344027    98   209
   213  OH    34.738393   27.448530   33.490648    96   209   214
   214  HO    35.143506   27.774251   34.297472    97   213
   215  CT    23.261832   25.069471   28.941984    99   216   217   218   219
   216  HC    23.417974   26.070093   28.810877    98   215
   217  HC    24.192712   24.533990   29.023658    98   215
   218  HC    22.764879   24.822345   29.897380    98   215
   219  OH    22.451866   24.605342   27.862441    96   215   220
   220  HO    22.984166   24.196465   27.199272    97   219
   221  CT    36.119999   31.840000   26.949999    99   222   223   224   225
   222  HC    36.660000   31.119999   26.280001    98   221
   223  HC    36.370003   31.400002   27.910000    98   221
   224  HC    36.520000   32.780003   26.689999    98   221
   225  OH    34.709999   31.740000   26.689999    96   221   226
   226  HO    34.619999   31.870001   25.750000    97   225
   227  CT    34.489998   30.559999   23.129999    99   228   229   230   231
   228  HC    33.680000   31.270000   23.290001    98   227
   229  HC    34.430000   30.139999   22.119999    98   227
   230  HC    34.320000   29.709999   23.780001    98   227
   231  OH    35.650002   31.119999   23.689999    96   227   232
   232  HO    36.270000   30.369999   23.750000    97   231
   233  CT    34.520000   20.599998   27.660000    99   234   235   236   237
   234  HC    33.689999   20.200001   27.049999    98   233
   235  HC    34.260002   20.490000   28.689999    98   233
   236  HC    34.549999   21.700001   27.480000    98   233
   237  OH    35.790001   19.980000   27.390001    96   233   238
   238  HO    35.599998   19.010000   27.330000    97   237
   239  CT    21.700001   29.230001   34.459999    99   240   241   242   243
   240  HC    22.410000   29.480000   33.650002    98   239
   241  HC    22.160000   28.590000   35.260002    98   239
   242  HC    21.170002   30.109999   34.869999    98   239
   243  OH    20.710001   28.430000   33.889999    96   239   244
   244  HO    21.170002   27.910000   33.279999    97   243
   245  CT    29.370001   27.509998   36.680000    99   246   247   248   249
   246  HC    28.970001   26.610001   37.200001    98   245
   247  HC    29.860001   28.239998   37.340000    98   245
   248  HC    30.160000   27.010000   36.080002    98   245
   249  OH    28.480000   28.260000   35.869999    96   245   250
   250  HO    28.350000   27.679998   35.190002    97   249
   251  CT    36.600002   27.820000   24.139999    99   252   253   254   255
   252  HC    35.910000   27.139999   23.520000    98   251
   253  HC    36.020000   28.400000   24.860001    98   251
   254  HC    37.180000   27.250000   24.860001    98   251
   255  OH    37.400002   28.759998   23.480000    96   251   256
   256  HO    37.660000   28.400000   22.620001    97   255
   257  CT    28.260000   25.420000   24.219999    99   258   259   260   261
   258  HC    29.000000   26.199999   24.180000    98   257
   259  HC    28.440001   24.930000   25.200001    98   257
   260  HC    27.250000   25.920000   24.139999    98   257
   261  OH    28.380001   24.440001   23.230000    96   257   262
   262  HO    27.900000   24.709999   22.410000    97   261
   263  CT    25.620001   37.630001   25.090000    99   264   265   266   267
   264  HC    25.780001   36.510002   25.030001    98   263
   265  HC    26.189999   38.040001   25.940001    98   263
   266  HC    24.519999   37.809998   25.299999    98   263
   267  OH    26.119999   38.220001   23.940001    96   263   268
   268  HO    27.000000   37.790001   23.840000    97   267
   269  CT    37.279999   23.480000   30.889999    99   270   271   272   273
   270  HC    36.830002   23.820000   31.789999    98   269
   271  HC    37.560001   24.379999   30.320000    98   269
   272  HC    38.259998   22.969999   31.059999    98   269
   273  OH    36.450001   22.620001   30.120001    96   269   274
   274  HO    36.849998   22.240000   29.289999    97   273
   275  CT    22.840000   32.639999   36.670002    99   276   277   278   279
   276  HC    21.879999   32.770000   37.200001    98   275
   277  HC    23.459999   31.940001   37.160000    98   275
   278  HC    23.330000   33.639999   36.549999    98   275
   279  OH    22.639999   32.160000   35.380001    96   275   280
   280  HO    22.100000   32.799999   34.949997    97   279
   281  CT    32.340000   20.280001   33.080002    99   282   283   284   285
   282  HC    31.750000   19.440001   33.440002    98   281
   283  HC    33.340000   20.150002   33.450001    98   281
   284  HC    31.960001   21.199999   33.480000    98   281
   285  OH    32.190002   20.400000   31.689999    96   281   286
   286  HO    32.830002   21.080000   31.429998    97   285
   287  CT    32.690002   28.759998   36.180000    99   288   289   290   291
   288  HC    33.160000   28.889999   37.139999    98   287
   289  HC    31.639999   28.990000   36.230000    98   287
   290  HC    32.850002   27.690001   35.969997    98   287
   291  OH    33.250000   29.580000   35.169998    96   287   292
   292  HO    33.230000   30.529999   35.280003    97   291
   293  CT    22.690001   24.460001   33.570000    99   294   295   296   297
   294  HC    22.439999   23.500000   33.230000    98   293
   295  HC    21.830002   25.039999   33.450001    98   293
   296  HC    23.529999   24.779999   32.860001    98   293
   297  OH    22.990000   24.500000   34.910000    96   293   298
   298  HO    23.299999   25.380001   35.200001    97   297
   299  CT    36.410000   34.240002   24.000000    99   300   301   302   303
   300  HC    35.650002   34.100002   24.760000    98   299
   301  HC    37.349998   33.770000   24.289999    98   299
   302  HC    35.930000   33.910000   23.010002    98   299
   303  OH    36.549999   35.619999   24.030001    96   299   304
   304  HO    35.759998   36.090000   24.389999    97   303
   305  CT    33.800003   37.780003   24.600000    99   306   307   308   309
   306  HC    34.459999   38.209999   23.929998    98   305
   307  HC    34.059998   38.189999   25.650002    98   305
   308  HC    32.840000   38.049999   24.289999    98   305
   309  OH    34.100002   36.489998   24.799999    96   305   310
   310  HO    33.940002   36.279999   25.750000    97   309
   311  CT    22.969999   35.239998   25.810001    99   312   313   314   315
   312  HC    21.949999   35.150002   26.230000    98   311
   313  HC    22.910000   35.590000   24.719999    98   311
   314  HC    23.459999   36.010002   26.429998    98   311
   315  OH    23.490000   33.940002   25.980000    96   311   316
   316  HO    23.570002   33.610001   26.860001    97   315
   317  CT    25.669998   28.529999   22.390001    99   318   319   320   321
   318  HC    25.260000   29.030001   23.269999    98   317
   319  HC    24.849998   27.959999   21.980000    98   317
   320  HC    26.520000   27.930000   22.660000    98   317
   321  OH    25.990000   29.470001   21.420000    96   317   322
   322  HO    26.719999   30.030001   21.730001    97   321
   323  CT    23.590000   21.870001   30.699999    99   324   325   326   327
   324  HC    22.900000   22.139999   29.930000    98   323
   325  HC    23.269999   20.930000   31.110001    98   323
   326  HC    23.629999   22.650002   31.490000    98   323
   327  OH    24.830000   21.650000   30.179998    96   323   328
   328  HO    25.280001   22.449999   29.790001    97   327
   329  CT    28.450001   33.919998   38.200001    99   330   331   332   333
   330  HC    27.639999   33.320000   37.720001    98   329
   331  HC    29.320000   34.200001   37.500000    98   329
   332  HC    28.870001   33.410000   39.049999    98   329
   333  OH    27.920000   35.180000   38.529999    96   329   334
   334  HO    27.660000   35.639999   37.730000    97   333
   335  CT    27.959999   21.189999   24.619999    99   336   337   338   339
   336  HC    27.439999   20.490000   25.209999    98   335
   337  HC    28.010002   20.699999   23.660000    98   335
   338  HC    28.929998   21.359999   25.020000    98   335
   339  OH    27.150000   22.390001   24.500000    96   335   340
   340  HO    27.579998   23.110001   24.049999    97   339
   341  CT    25.629999   36.440002   36.650002    99   342   343   344   345
   342  HC    25.200001   35.439999   36.530003    98   341
   343  HC    24.969999   37.070000   36.049999    98   341
   344  HC    25.450001   36.639999   37.750000    98   341
   345  OH    27.030001   36.400002   36.389999    96   341   346
   346  HO    27.200001   36.090000   35.490002    97   345
   347  CT    36.770000   30.209999   32.980000    99   348   349   350   351
   348  HC    36.059998   29.760000   33.639999    98   347
   349  HC    37.270000   29.440001   32.330002    98   347
   350  HC    36.259998   30.910000   32.340000    98   347
   351  OH    37.750000   30.869999   33.680000    96   347   352
   352  HO    38.239998   31.470001   33.110001    97   351
   353  CT    26.870001   19.270000   27.790001    99   354   355   356   357
   354  HC    26.919998   18.670000   28.699999    98   353
   355  HC    27.820000   19.590000   27.420002    98   353
   356  HC    26.350000   20.220001   27.850000    98   353
   357  OH    26.429998   18.469999   26.719999    96   353   358
   358  HO    25.500000   18.459999   26.700001    97   357
   359  CT    36.029999   21.930000   24.580000    99   360   361   362   363
   360  HC    36.770000   22.670000   24.660000    98   359
   361  HC    36.440002   20.910000   24.330002    98   359
   362  HC    35.560001   21.870001   25.559999    98   359
   363  OH    34.959999   22.430000   23.680000    96   359   364
   364  HO    35.380001   22.700001   22.860001    97   363
   365  CT    23.699999   37.490002   32.420002    99   366   367   368   369
   366  HC    23.220001   38.360001   32.709999    98   365
   367  HC    24.209999   37.809998   31.510000    98   365
   368  HC    24.379999   37.160000   33.290001    98   365
   369  OH    22.639999   36.580002   32.060001    96   365   370
   370  HO    22.180000   36.320000   32.860001    97   369
   371  CT    32.239998   26.570000   21.989998    99   372   373   374   375
   372  HC    32.939999   25.869999   21.580000    98   371
   373  HC    31.359999   25.950001   22.309999    98   371
   374  HC    31.930000   27.260000   21.180000    98   371
   375  OH    32.620003   27.360001   23.010002    96   371   376
   376  HO    32.970001   26.830002   23.730000    97   375
   377  CT    31.889999   23.180000   22.430000    99   378   379   380   381
   378  HC    30.780001   23.160000   22.340000    98   377
   379  HC    32.070000   22.080000   22.439999    98   377
   380  HC    32.330002   23.670002   21.619999    98   377
   381  OH    32.349998   23.680000   23.629999    96   377   382
   382  HO    33.290001   23.490000   23.710001    97   381
   383  CT    39.040001   26.740000   31.350000    99   384   385   386   387
   384  HC    38.360001   26.540001   30.529999    98   383
   385  HC    39.949997   27.130001   30.940001    98   383
   386  HC    38.529999   27.530001   31.889999    98   383
   387  OH    39.299999   25.699999   32.160000    96   383   388
   388  HO    39.869999   25.060001   31.750000    97   387
   389  CT    30.490000   17.940001   29.779999    99   390   391   392   393
   390  HC    30.320000   17.430000   30.760000    98   389
   391  HC    30.039999   17.270000   28.980000    98   389
   392  HC    29.949999   18.830000   29.750000    98   389
   393  OH    31.879999   18.220001   29.879999    96   389   394
   394  HO    31.879999   19.010000   30.380001    97   393
   395  CT    39.599998   28.880001   27.449999    99   396   397   398   399
   396  HC    38.540001   28.770000   27.260000    98   395
   397  HC    40.229996   28.380001   26.630001    98   395
   398  HC    39.830002   28.369999   28.389999    98   395
   399  OH    40.089996   30.190001   27.579998    96   395   400
   400  HO    39.840000   30.760000   26.840000    97   399
   401  CT    24.410000   24.650000   25.000000    99   402   403   404   405
   402  HC    25.389999   24.440001   24.389999    98   401
   403  HC    23.540001   24.580000   24.340000    98   401
   404  HC    24.449999   25.590000   25.490000    98   401
   405  OH    24.139999   23.699999   25.980000    96   401   406
   406  HO    24.189999   22.830000   25.610001    97   405
   407  CT    19.059999   27.550001   29.930000    99   408   409   410   411
   408  HC    19.030001   27.660000   30.969999    98   407
   409  HC    18.860001   28.510000   29.419998    98   407
   410  HC    18.370001   26.770000   29.619999    98   407
   411  OH    20.360001   27.139999   29.639999    96   407   412
   412  HO    20.340000   27.010000   28.699999    97   411
   413  CT    22.670000   28.870001   24.240000    99   414   415   416   417
   414  HC    22.000000   28.410000   23.540001    98   413
   415  HC    23.110001   29.690001   23.670002    98   413
   416  HC    23.320000   28.039999   24.570000    98   413
   417  OH    21.910000   29.570000   25.209999    96   413   418
   418  HO    21.210001   30.020000   24.740000    97   417
   419  CT    38.250000   31.590000   30.220001    99   420   421   422   423
   420  HC    37.190002   31.809999   30.250000    98   419
   421  HC    38.489998   31.980000   29.240000    98   419
   422  HC    38.399998   30.559999   30.109999    98   419
   423  OH    39.000000   32.130001   31.280001    96   419   424
   424  HO    39.900002   31.870001   31.010000    97   423
   425  CT    31.240002   37.529999   21.459999    99   426   427   428   429
   426  HC    30.969999   36.650002   20.900000    98   425
   427  HC    32.239998   37.529999   21.989998    98   425
   428  HC    31.280001   38.340000   20.710001    98   425
   429  OH    30.369999   37.880001   22.509998    96   425   430
   430  HO    30.500000   38.860001   22.650002    97   429
   431  CT    30.720001   19.440001   25.060001    99   432   433   434   435
   432  HC    30.850000   20.510002   24.910000    98   431
   433  HC    31.700001   18.980000   24.750000    98   431
   434  HC    29.960001   19.180000   24.330002    98   431
   435  OH    30.299999   19.030001   26.410000    96   431   436
   436  HO    30.020000   18.139999   26.329998    97   435
   437  CT    25.500000   39.860001   28.940001    99   438   439   440   441
   438  HC    24.680000   39.920002   28.269999    98   437
   439  HC    25.060001   40.050003   29.949999    98   437
   440  HC    26.350000   40.400002   28.599998    98   437
   441  OH    25.910000   38.489998   28.980000    96   437   442
   442  HO    25.130001   37.970001   29.119999    97   441
   443  CT    32.070000   40.510002   26.040001    99   444   445   446   447
   444  HC    31.189999   39.920002   25.699999    98   443
   445  HC    32.790001   40.459999   25.190001    98   443
   446  HC    32.449997   40.019997   26.930000    98   443
   447  OH    31.849998   41.889999   26.189999    96   443   448
   448  HO    32.680000   42.280003   26.119999    97   447
   449  CT    20.290001   33.000000   27.750000    99   450   451   452   453
   450  HC    20.260000   32.780003   26.689999    98   449
   451  HC    20.990000   32.330002   28.230000    98   449
   452  HC    20.580002   34.000000   27.869999    98   449
   453  OH    18.990000   32.930000   28.320000    96   449   454
   454  HO    18.700001   32.110001   27.990000    97   453
   455  CT    19.070000   30.869999   31.370001    99   456   457   458   459
   456  HC    18.660000   30.000000   31.900002    98   455
   457  HC    20.079998   30.830000   30.980000    98   455
   458  HC    18.309999   31.059999   30.539999    98   455
   459  OH    19.010000   31.910000   32.379997    96   455   460
   460  HO    19.139999   32.739998   31.879999    97   459
   461  CT    23.120001   29.000000   38.180000    99   462   463   464   465
   462  HC    23.940001   29.570000   37.650002    98   461
   463  HC    22.730000   28.310001   37.480000    98   461
   464  HC    22.290001   29.719999   38.459999    98   461
   465  OH    23.640001   28.389999   39.320000    96   461   466
   466  HO    24.160000   27.700001   38.919998    97   465
   467  CT    20.500000   26.870001   26.160000    99   468   469   470   471
   468  HC    21.280001   26.510000   25.500000    98   467
   469  HC    19.639999   27.270000   25.650002    98   467
   470  HC    20.769999   27.700001   26.879999    98   467
   471  OH    20.160000   25.690001   26.840000    96   467   472
   472  HO    20.860001   25.280001   27.369999    97   471
   473  CT    33.130001   33.419998   37.149998    99   474   475   476   477
   474  HC    33.230000   34.459999   36.970001    98   473
   475  HC    33.770000   32.959999   37.939999    98   473
   476  HC    32.090000   33.340000   37.540001    98   473
   477  OH    33.380001   32.639999   36.020000    96   473   478
   478  HO    33.209999   33.150002   35.209999    97   477
   479  CT    21.930000   37.579998   28.510000    99   480   481   482   483
   480  HC    22.270000   37.840000   27.530001    98   479
   481  HC    21.730001   36.530003   28.480000    98   479
   482  HC    21.049999   38.110001   28.759998    98   479
   483  OH    23.000000   37.700001   29.389999    96   479   484
   484  HO    22.920000   37.119999   30.120001    97   483
   485  CT    24.709999   21.559999   34.790001    99   486   487   488   489
   486  HC    25.480001   20.750000   34.700001    98   485
   487  HC    25.280001   22.480000   35.009998    98   485
   488  HC    24.189999   21.600000   33.860001    98   485
   489  OH    23.719999   21.580000   35.799999    96   485   490
   490  HO    23.360001   22.430000   35.660000    97   489
   491  CT    28.549999   30.150002   39.959999    99   492   493   494   495
   492  HC    27.520000   30.469999   40.009998    98   491
   493  HC    28.650000   29.580000   38.989998    98   491
   494  HC    29.090000   31.099998   39.820000    98   491
   495  OH    29.070000   29.430000   41.110001    96   491   496
   496  HO    30.030001   29.419998   41.059998    97   495
   497  CT    36.329998   19.430000   31.420000    99   498   499   500   501
   498  HC    35.580002   18.869999   32.060001    98   497
   499  HC    36.639999   20.299999   32.020000    98   497
   500  HC    35.910000   19.850000   30.510002    98   497
   501  OH    37.550003   18.710001   31.070002    96   497   502
   502  HO    38.270000   18.880001   31.689999    97   501
   503  CT    39.690002   24.719999   26.329998    99   504   505   506   507
   504  HC    39.059998   24.540001   27.230000    98   503
   505  HC    39.000000   24.879999   25.490000    98   503
   506  HC    40.370003   23.970001   26.070002    98   503
   507  OH    40.489998   25.910000   26.590000    96   503   508
   508  HO    40.680000   26.180000   25.690001    97   507
   509  CT    33.880001   24.289999   36.110001    99   510   511   512   513
   510  HC    34.610001   24.570000   36.860001    98   509
   511  HC    34.220001   24.180000   35.120003    98   509
   512  HC    33.070000   24.960001   36.020000    98   509
   513  OH    33.430000   22.969999   36.419998    96   509   514
   514  HO    32.970001   23.139999   37.250000    97   513
   515  CT    30.730000   39.130001   33.540001    99   516   517   518   519
   516  HC    30.520000   38.099998   33.469997    98   515
   517  HC    29.719999   39.570000   33.349998    98   515
   518  HC    31.459999   39.310001   32.760002    98   515
   519  OH    31.259998   39.690002   34.760002    96   515   520
   520  HO    32.070000   39.200001   34.910000    97   519
   521  CT    28.580000   22.509998   37.000000    99   522   523   524   525
   522  HC    28.260000   21.970001   37.840000    98   521
   523  HC    27.750000   23.039999   36.559998    98   521
   524  HC    28.889999   21.740000   36.290001    98   521
   525  OH    29.680000   23.380001   37.219997    96   521   526
   526  HO    29.809999   23.829998   36.400002    97   525
   527  CT    36.279999   21.879999   34.509998    99   528   529   530   531
   528  HC    36.290001   22.260000   33.529999    98   527
   529  HC    36.360001   22.709999   35.260002    98   527
   530  HC    37.200001   21.340000   34.549999    98   527
   531  OH    35.090000   21.160000   34.760002    96   527   532
   532  HO    34.419998   21.820000   34.970001    97   531
   533  CT    34.590000   36.779999   32.550003    99   534   535   536   537
   534  HC    35.190002   37.730000   32.410000    98   533
   535  HC    34.630001   36.259998   31.580000    98   533
   536  HC    35.110001   36.189999   33.299999    98   533
   537  OH    33.290001   36.959999   32.959999    96   533   538
   538  HO    33.349998   37.790001   33.329998    97   537
   539  CT    24.560001   25.320000   38.349998    99   540   541   542   543
   540  HC    24.949999   24.570000   37.620003    98   539
   541  HC    23.500000   25.389999   38.200001    98   539
   542  HC    24.779999   24.879999   39.349998    98   539
   543  OH    25.369999   26.520000   38.150002    96   539   544
   544  HO    26.219999   26.350000   38.610001    97   543
   545  CT    28.640001   27.959999   19.680000    99   546   547   548   549
   546  HC    27.630001   28.380001   19.500000    98   545
   547  HC    29.349998   28.789999   19.709999    98   545
   548  HC    28.800001   27.209999   18.910000    98   545
   549  OH    28.559999   27.490002   21.040001    96   545   550
   550  HO    29.059999   28.150002   21.580000    97   549
   551  CT    23.640001   34.900002   21.989998    99   552   553   554   555
   552  HC    23.970001   35.840000   22.439999    98   551
   553  HC    23.529999   34.189999   22.830000    98   551
   554  HC    22.630001   35.070000   21.459999    98   551
   555  OH    24.590000   34.400002   21.059999    96   551   556
   556  HO    24.209999   33.650002   20.629999    97   555
   557  CT    29.809999   34.869999   18.830000    99   558   559   560   561
   558  HC    29.740000   35.950001   18.539999    98   557
   559  HC    29.440001   34.139999   18.120001    98   557
   560  HC    29.289999   34.599998   19.730000    98   557
   561  OH    31.099998   34.419998   18.910000    96   557   562
   562  HO    31.160000   33.759998   18.180000    97   561
   563  CT    29.480000   41.030003   23.500000    99   564   565   566   567
   564  HC    28.599998   40.779999   22.950001    98   563
   565  HC    29.719999   42.119999   23.360001    98   563
   566  HC    29.330002   40.779999   24.549999    98   563
   567  OH    30.559999   40.310001   23.000000    96   563   568
   568  HO    31.329998   40.809998   23.260000    97   567
   569  CT    31.830002   41.300003   29.790001    99   570   571   572   573
   570  HC    32.830002   41.380001   30.200001    98   569
   571  HC    31.809999   41.959999   28.889999    98   569
   572  HC    31.080000   41.590000   30.550001    98   569
   573  OH    31.429998   39.980000   29.590000    96   569   574
   574  HO    30.539999   40.040001   29.230001    97   573
   575  CT    39.070000   20.889999   28.389999    99   576   577   578   579
   576  HC    39.270000   20.250000   27.530001    98   575
   577  HC    39.949997   21.480000   28.369999    98   575
   578  HC    39.119999   20.320000   29.279999    98   575
   579  OH    37.880001   21.630001   28.090000    96   575   580
   580  HO    37.119999   21.029999   27.869999    97   579
   581  CT    35.350002   32.420002   19.500000    99   582   583   584   585
   582  HC    35.790001   33.380001   19.440001    98   581
   583  HC    35.270000   32.040001   20.529999    98   581
   584  HC    34.279999   32.500000   19.090000    98   581
   585  OH    35.930000   31.530001   18.630001    96   581   586
   586  HO    35.190002   30.869999   18.510000    97   585
   587  CT    25.240000   18.320000   31.350000    99   588   589   590   591
   588  HC    25.880001   17.460001   31.429998    98   587
   589  HC    24.360001   18.240000   31.989998    98   587
   590  HC    24.840000   18.420000   30.320000    98   587
   591  OH    25.930000   19.559999   31.680000    96   587   592
   592  HO    25.480001   20.280001   31.180000    97   591
   593  CT    37.720001   36.389999   28.350000    99   594   595   596   597
   594  HC    36.750000   36.639999   27.830000    98   593
   595  HC    37.639999   36.670002   29.460001    98   593
   596  HC    37.939999   35.320000   28.280001    98   593
   597  OH    38.709999   37.190002   27.799999    96   593   598
   598  HO    38.740002   36.939999   26.809999    97   597
   599  CT    27.449999   31.400002   18.500000    99   600   601   602   603
   600  HC    27.500000   32.369999   18.940001    98   599
   601  HC    26.930000   30.850000   19.209999    98   599
   602  HC    28.410000   30.940001   18.549999    98   599
   603  OH    26.900002   31.300001   17.200001    96   599   604
   604  HO    26.010000   30.910000   17.219999    97   603
   605  CT    18.290001   29.840000   26.919998    99   606   607   608   609
   606  HC    18.240000   30.520000   26.070002    98   605
   607  HC    17.860001   28.850000   26.700001    98   605
   608  HC    19.370001   29.670000   27.049999    98   605
   609  OH    17.700001   30.369999   28.129999    96   605   610
   610  HO    16.790001   30.500000   27.980001    97   609
   611  CT    33.800003   19.440001   22.880001    99   612   613   614   615
   612  HC    33.320000   20.340000   23.129999    98   611
   613  HC    34.579998   19.770000   22.270000    98   611
   614  HC    34.290001   19.010000   23.710001    98   611
   615  OH    32.990002   18.539999   22.170000    96   611   616
   616  HO    32.830002   19.010000   21.359999    97   615
   617  CT    19.459999   35.389999   30.400000    99   618   619   620   621
   618  HC    19.119999   35.739998   29.480000    98   617
   619  HC    19.100000   36.000000   31.160000    98   617
   620  HC    20.510002   35.350002   30.500000    98   617
   621  OH    18.930000   34.220001   30.629999    96   617   622
   622  HO    18.990000   33.570000   29.869999    97   621
   623  CT    32.939999   16.860001   27.369999    99   624   625   626   627
   624  HC    32.980000   16.400000   28.410000    98   623
   625  HC    32.239998   17.760000   27.449999    98   623
   626  HC    32.630001   16.150000   26.630001    98   623
   627  OH    34.270000   17.200001   27.000000    96   623   628
   628  HO    34.860001   16.450001   27.219999    97   627
   629  CT    36.849998   24.690001   21.510000    99   630   631   632   633
   630  HC    36.840000   25.280001   22.449999    98   629
   631  HC    36.799999   25.200001   20.610001    98   629
   632  HC    37.889999   24.389999   21.559999    98   629
   633  OH    36.059998   23.529999   21.350000    96   629   634
   634  HO    36.610001   22.880001   20.959999    97   633
   635  CT    19.299999   25.780001   35.099998    99   636   637   638   639
   636  HC    19.980000   25.860001   34.250000    98   635
   637  HC    19.420000   24.840000   35.630001    98   635
   638  HC    18.279999   25.720001   34.700001    98   635
   639  OH    19.440001   26.940001   35.829998    96   635   640
   640  HO    19.630001   27.660000   35.180000    97   639
   641  CT    23.029999   20.030001   27.930000    99   642   643   644   645
   642  HC    23.129999   20.910000   27.320002    98   641
   643  HC    24.040001   19.789999   28.350000    98   641
   644  HC    22.330000   20.280001   28.699999    98   641
   645  OH    22.650002   18.869999   27.160000    96   641   646
   646  HO    23.099998   18.869999   26.300001    97   645
   647  CT    19.170000   33.520000   35.590000    99   648   649   650   651
   648  HC    19.160000   32.590000   36.189999    98   647
   649  HC    18.220001   33.940002   35.169998    98   647
   650  HC    19.690001   34.330002   36.139999    98   647
   651  OH    20.000000   33.440002   34.430000    96   647   652
   652  HO    19.529999   32.920002   33.800003    97   651
   653  CT    27.840000   41.660000   31.429998    99   654   655   656   657
   654  HC    28.750000   41.779999   32.009998    98   653
   655  HC    27.460001   40.639999   31.719999    98   653
   656  HC    27.969999   41.779999   30.340000    98   653
   657  OH    26.879999   42.610001   31.889999    96   653   658
   658  HO    27.080000   43.489998   31.570000    97   657
   659  CT    22.790001   31.099998   20.820000    99   660   661   662   663
   660  HC    22.160000   31.689999   20.090000    98   659
   661  HC    22.840000   30.050001   20.650002    98   659
   662  HC    22.379999   31.140001   21.849998    98   659
   663  OH    24.070000   31.709999   20.760000    96   659   664
   664  HO    24.619999   30.930000   20.840000    97   663
   665  CT    25.639999   41.690002   25.240000    99   666   667   668   669
   666  HC    25.030001   42.600002   25.270000    98   665
   667  HC    26.110001   41.469997   26.110001    98   665
   668  HC    26.410000   41.880001   24.480000    98   665
   669  OH    24.849998   40.619999   24.890001    96   665   670
   670  HO    25.430000   40.000000   24.430000    97   669
   671  CT    37.669998   26.119999   35.759998    99   672   673   674   675
   672  HC    37.840000   25.389999   36.480000    98   671
   673  HC    38.259998   27.080000   35.919998    98   671
   674  HC    38.040001   25.780001   34.700001    98   671
   675  OH    36.290001   26.570000   35.779999    96   671   676
   676  HO    36.139999   27.119999   36.549999    97   675
   677  CT    38.419998   31.889999   21.830002    99   678   679   680   681
   678  HC    38.430000   32.889999   21.420000    98   677
   679  HC    37.490002   31.359999   21.849998    98   677
   680  HC    38.639999   32.190002   22.880001    98   677
   681  OH    39.450001   31.119999   21.240002    96   677   682
   682  HO    38.989998   30.369999   20.930000    97   681
   683  CT    20.710001   37.349998   34.980000    99   684   685   686   687
   684  HC    21.259998   38.250000   34.820000    98   683
   685  HC    19.770000   37.560001   34.389999    98   683
   686  HC    20.500000   37.470001   36.049999    98   683
   687  OH    21.520000   36.230000   34.639999    96   683   688
   688  HO    20.969999   35.389999   34.660000    97   687
   689  CT    29.000000   42.900002   27.860001    99   690   691   692   693
   690  HC    28.369999   43.750000   28.039999    98   689
   691  HC    29.930000   43.189999   28.239998    98   689
   692  HC    28.689999   41.930000   28.190001    98   689
   693  OH    29.119999   42.690002   26.470001    96   689   694
   694  HO    30.030001   42.500000   26.329998    97   693
   695  CT    37.279999   35.969997   21.170002    99   696   697   698   699
   696  HC    36.790001   34.970001   21.180000    98   695
   697  HC    37.790001   36.220001   22.080000    98   695
   698  HC    36.570000   36.740002   20.850000    98   695
   699  OH    38.150002   35.680000   20.100000    96   695   700
   700  HO    37.620003   35.549999   19.340000    97   699
   701  CT    41.630001   25.290001   29.370001    99   702   703   704   705
   702  HC    40.910000   24.879999   28.689999    98   701
   703  HC    42.659996   25.290001   29.020000    98   701
   704  HC    41.320000   26.380001   29.349998    98   701
   705  OH    41.479996   24.730000   30.710001    96   701   706
   706  HO    42.180000   24.040001   30.780001    97   705
   707  CT    23.900002   32.700001   40.700001    99   708   709   710   711
   708  HC    23.099998   31.980000   41.149998    98   707
   709  HC    23.330000   33.670002   40.760002    98   707
   710  HC    24.219999   32.459999   39.690002    98   707
   711  OH    24.990002   32.959999   41.490002    96   707   712
   712  HO    25.550001   33.570000   40.939999    97   711
   713  CT    35.490002   30.020000   37.840000    99   714   715   716   717
   714  HC    36.119999   30.760000   38.209999    98   713
   715  HC    34.779999   29.799999   38.650002    98   713
   716  HC    34.930000   30.550001   37.090000    98   713
   717  OH    36.160000   28.950001   37.260002    96   713   718
   718  HO    37.020000   29.330002   36.989998    97   717
   719  CT    34.000000   28.389999   18.930000    99   720   721   722   723
   720  HC    33.099998   27.780001   18.930000    98   719
   721  HC    34.799999   27.990000   18.170000    98   719
   722  HC    34.489998   28.290001   19.900000    98   719
   723  OH    33.709999   29.790001   18.820000    96   719   724
   724  HO    32.820000   29.820002   18.400000    97   723
   725  CT    20.369999   32.060001   23.480000    99   726   727   728   729
   726  HC    19.330000   32.389999   23.220001    98   725
   727  HC    21.020000   32.439999   22.709999    98   725
   728  HC    20.520000   32.290001   24.519999    98   725
   729  OH    20.389999   30.699999   23.280001    96   725   730
   730  HO    20.250000   30.580002   22.290001    97   729
   731  CT    33.930000   37.860001   35.980000    99   732   733   734   735
   732  HC    35.000000   37.760002   36.230000    98   731
   733  HC    33.480000   37.970001   36.959999    98   731
   734  HC    33.540001   36.930000   35.549999    98   731
   735  OH    33.810001   38.989998   35.090000    96   731   736
   736  HO    34.579998   39.529999   35.160000    97   735
   737  CT    34.410000   16.430000   31.110001    99   738   739   740   741
   738  HC    34.080002   15.720000   30.380001    98   737
   739  HC    34.770000   17.280001   30.500000    98   737
   740  HC    35.260002   16.100000   31.689999    98   737
   741  OH    33.340000   16.910000   31.879999    96   737   742
   742  HO    32.840000   17.480000   31.289999    97   741
   743  CT    28.529999   25.360001   40.200001    99   744   745   746   747
   744  HC    29.200001   25.490000   39.299999    98   743
   745  HC    29.030001   25.529999   41.180000    98   743
   746  HC    28.260000   24.349998   40.320000    98   743
   747  OH    27.279999   26.059999   39.970001    96   743   748
   748  HO    27.139999   26.670000   40.750000    97   747
   749  CT    39.599998   21.070002   24.690001    99   750   751   752   753
   750  HC    40.529999   20.480001   24.890001    98   749
   751  HC    39.410000   21.689999   25.599998    98   749
   752  HC    38.800003   20.510002   24.489998    98   749
   753  OH    39.879997   21.879999   23.540001    96   749   754
   754  HO    40.250000   21.289999   22.869999    97   753
   755  CT    40.190002   32.509998   25.020000    99   756   757   758   759
   756  HC    40.610001   32.570000   24.020000    98   755
   757  HC    39.700001   33.489998   25.230000    98   755
   758  HC    41.009998   32.369999   25.680000    98   755
   759  OH    39.380001   31.450001   25.290001    96   755   760
   760  HO    38.820000   31.289999   24.510000    97   759
   761  CT    40.840000   27.790001   23.210001    99   762   763   764   765
   762  HC    41.350002   28.000000   22.299999    98   761
   763  HC    39.809998   27.620001   22.910000    98   761
   764  HC    40.790001   28.810001   23.750000    98   761
   765  OH    41.320000   26.730001   24.040001    96   761   766
   766  HO    41.189999   25.930000   23.540001    97   765
   767  CT    19.370001   28.950001   38.230000    99   768   769   770   771
   768  HC    19.639999   30.000000   38.040001    98   767
   769  HC    20.220001   28.350000   37.910000    98   767
   770  HC    18.459999   28.759998   37.669998    98   767
   771  OH    19.250000   28.750000   39.610001    96   767   772
   772  HO    20.139999   28.660000   39.980000    97   771
   773  CT    28.710001   40.190002   36.630001    99   774   775   776   777
   774  HC    28.680000   41.059998   35.930000    98   773
   775  HC    28.350000   39.250000   36.080002    98   773
   776  HC    27.950001   40.440002   37.349998    98   773
   777  OH    29.840000   40.029999   37.480000    96   773   778
   778  HO    30.550001   39.910000   36.770000    97   777
   779  CT    32.190002   25.200001   39.150002    99   780   781   782   783
   780  HC    31.630001   25.280001   40.050003    98   779
   781  HC    33.220001   25.380001   39.299999    98   779
   782  HC    31.639999   25.830000   38.440002    98   779
   783  OH    32.119999   23.850000   38.770000    96   779   784
   784  HO    31.230000   23.570002   38.689999    97   783
   785  CT    36.880001   33.299999   35.869999    99   786   787   788   789
   786  HC    37.850002   32.950001   35.619999    98   785
   787  HC    36.139999   33.130001   35.060001    98   785
   788  HC    36.530003   32.720001   36.720001    98   785
   789  OH    36.910000   34.619999   36.360001    96   785   790
   790  HO    36.049999   34.820000   36.820000    97   789
   791  CT    26.320000   34.939999   17.910000    99   792   793   794   795
   792  HC    26.709999   34.049999   17.480000    98   791
   793  HC    25.230000   34.959999   17.869999    98   791
   794  HC    26.630001   35.790001   17.309999    98   791
   795  OH    26.760002   35.090000   19.220001    96   791   796
   796  HO    26.049999   34.809998   19.809999    97   795
   797  CT    37.490002   17.990000   25.120001    99   798   799   800   801
   798  HC    36.760002   17.320000   25.500000    98   797
   799  HC    37.180000   18.930000   25.529999    98   797
   800  HC    38.399998   17.719999   25.710001    98   797
   801  OH    37.529999   18.099998   23.740002    96   797   802
   802  HO    38.360001   17.710001   23.440001    97   801
   803  CT    26.800001   24.260002   20.610001    99   804   805   806   807
   804  HC    26.219999   23.459999   20.959999    98   803
   805  HC    26.510000   24.670000   19.660000    98   803
   806  HC    27.850000   23.940001   20.699999    98   803
   807  OH    26.580000   25.350000   21.359999    96   803   808
   808  HO    27.219999   26.049999   21.150000    97   807
   809  CT    23.829998   22.000000   22.760000    99   810   811   812   813
   810  HC    23.820000   21.590000   21.770000    98   809
   811  HC    24.869999   21.960001   23.059999    98   809
   812  HC    23.719999   23.070000   22.609999    98   809
   813  OH    22.959999   21.350000   23.610001    96   809   814
   814  HO    22.049999   21.719999   23.570002    97   813
   815  CT    28.310001   15.850000   33.279999    99   816   817   818   819
   816  HC    27.550001   16.109999   34.010002    98   815
   817  HC    29.189999   16.559999   33.299999    98   815
   818  HC    27.750000   15.860000   32.320000    98   815
   819  OH    28.789999   14.559999   33.549999    96   815   820
   820  HO    29.670000   14.530000   33.160000    97   819
   821  CT    32.950001   29.619999   40.960003    99   822   823   824   825
   822  HC    33.180000   30.150002   41.970001    98   821
   823  HC    32.830002   30.280001   40.079998    98   821
   824  HC    33.810001   29.090000   40.680000    98   821
   825  OH    31.830002   28.770000   41.070000    96   821   826
   826  HO    32.130001   28.000000   41.529999    97   825
   827  CT    28.380001   16.559999   24.619999    99   828   829   830   831
   828  HC    27.530001   15.870000   24.590000    98   827
   829  HC    29.230001   16.030001   24.170000    98   827
   830  HC    28.150002   17.389999   24.000000    98   827
   831  OH    28.570002   17.020000   25.900000    96   827   832
   832  HO    27.799999   17.539999   26.189999    97   831
   833  CT    20.410000   23.210001   24.760000    99   834   835   836   837
   834  HC    20.100000   22.430000   25.439999    98   833
   835  HC    19.700001   24.000000   24.900000    98   833
   836  HC    21.359999   23.549999   25.139999    98   833
   837  OH    20.620001   22.910000   23.410000    96   833   838
   838  HO    21.070002   23.759998   23.090000    97   837
   839  CT    30.320000   24.910000   19.119999    99   840   841   842   843
   840  HC    29.809999   25.610001   19.750000    98   839
   841  HC    31.380001   25.060001   19.129999    98   839
   842  HC    30.220001   25.290001   18.139999    98   839
   843  OH    29.820002   23.549999   19.040001    96   839   844
   844  HO    29.020000   23.640001   18.469999    97   843
   845  CT    24.949999   40.869999   35.639999    99   846   847   848   849
   846  HC    24.790001   40.680000   36.730000    98   845
   847  HC    25.200001   41.830002   35.590000    98   845
   848  HC    25.750000   40.250000   35.330002    98   845
   849  OH    23.800001   40.500000   34.949997    96   845   850
   850  HO    23.789999   41.100002   34.160000    97   849
   851  CT    24.260002   38.430000   20.139999    99   852   853   854   855
   852  HC    24.219999   37.420002   20.529999    98   851
   853  HC    25.070000   38.459999   19.379999    98   851
   854  HC    24.570000   39.209999   20.900000    98   851
   855  OH    23.099998   38.889999   19.510000    96   851   856
   856  HO    23.459999   39.489998   18.850000    97   855
   857  CT    32.279999   35.590000   40.229996    99   858   859   860   861
   858  HC    31.520000   35.090000   39.619999    98   857
   859  HC    33.119999   34.910000   40.480000    98   857
   860  HC    31.779999   35.959999   41.079998    98   857
   861  OH    32.880001   36.639999   39.480000    96   857   862
   862  HO    32.230000   37.330002   39.480000    97   861
   863  CT    37.420002   29.189999   19.590000    99   864   865   866   867
   864  HC    37.290001   28.610001   18.710001    98   863
   865  HC    36.440002   29.379999   20.060001    98   863
   866  HC    37.860001   30.209999   19.349998    98   863
   867  OH    38.239998   28.570002   20.510002    96   863   868
   868  HO    38.970001   28.080002   19.990000    97   867
   869  CT    21.989998   41.360001   29.389999    99   870   871   872   873
   870  HC    21.029999   41.290001   29.920002    98   869
   871  HC    22.679998   41.799999   30.030001    98   869
   872  HC    22.379999   40.389999   29.200001    98   869
   873  OH    21.900002   42.119999   28.190001    96   869   874
   874  HO    21.930000   41.560001   27.400000    97   873
   875  CT    38.870003   36.040001   32.620003    99   876   877   878   879
   876  HC    38.130001   35.299999   32.490002    98   875
   877  HC    39.790001   35.639999   33.040001    98   875
   878  HC    39.119999   36.310001   31.619999    98   875
   879  OH    38.430000   37.119999   33.380001    96   875   880
   880  HO    38.810001   36.930000   34.240002    97   879
   881  CT    36.869999   40.830002   26.750000    99   882   883   884   885
   882  HC    36.349998   41.680000   27.180000    98   881
   883  HC    36.070000   40.440002   26.140001    98   881
   884  HC    37.720001   41.119999   26.119999    98   881
   885  OH    37.400002   39.990002   27.720001    96   881   886
   886  HO    37.900002   39.310001   27.330000    97   885
   887  CT    31.540001   18.710001   37.540001    99   888   889   890   891
   888  HC    31.020000   17.940001   37.000000    98   887
   889  HC    31.459999   18.480000   38.590000    98   887
   890  HC    31.230000   19.730000   37.279999    98   887
   891  OH    32.889999   18.609999   37.250000    96   887   892
   892  HO    32.980000   18.580000   36.290001    97   891
   893  CT    39.480000   37.260002   24.180000    99   894   895   896   897
   894  HC    38.779999   37.630001   23.440001    98   893
   895  HC    40.079998   38.110001   24.619999    98   893
   896  HC    40.130001   36.750000   23.520000    98   893
   897  OH    38.810001   36.510002   25.160000    96   893   898
   898  HO    38.040001   36.180000   24.750000    97   897
   899  CT    24.610001   18.520000   23.850000    99   900   901   902   903
   900  HC    25.570000   18.900000   23.780001    98   899
   901  HC    24.580000   17.480000   24.119999    98   899
   902  HC    24.240000   18.530001   22.790001    98   899
   903  OH    23.870001   19.199999   24.809999    96   899   904
   904  HO    23.650000   20.039999   24.440001    97   903
   905  CT    21.359999   37.049999   38.860001    99   906   907   908   909
   906  HC    20.980000   37.270000   39.849998    98   905
   907  HC    21.559999   38.049999   38.389999    98   905
   908  HC    20.510002   36.720001   38.299999    98   905
   909  OH    22.420002   36.129997   38.910000    96   905   910
   910  HO    22.110001   35.290001   39.389999    97   909
   911  CT    22.660000   25.780001   21.380001    99   912   913   914   915
   912  HC    22.160000   25.810001   20.420000    98   911
   913  HC    23.020000   26.719999   21.700001    98   911
   914  HC    23.510000   25.090000   21.359999    98   911
   915  OH    21.740000   25.520000   22.400000    96   911   916
   916  HO    20.880001   25.900000   22.180000    97   915
   917  CT    28.950001   19.529999   21.010000    99   918   919   920   921
   918  HC    29.209999   18.609999   21.639999    98   917
   919  HC    29.619999   20.320000   21.250000    98   917
   920  HC    28.959999   19.240000   19.930000    98   917
   921  OH    27.579998   19.820000   21.389999    96   917   922
   922  HO    26.960001   19.559999   20.720001    97   921
   923  CT    24.930000   29.570000   42.029999    99   924   925   926   927
   924  HC    24.630001   28.680000   42.579998    98   923
   925  HC    24.320000   29.740000   41.199997    98   923
   926  HC    25.950001   29.530001   41.690002    98   923
   927  OH    24.760000   30.520000   43.010002    96   923   928
   928  HO    24.969999   31.370001   42.659996    97   927
   929  CT    24.340000   38.520000   39.430000    99   930   931   932   933
   930  HC    23.880001   39.500000   39.520000    98   929
   931  HC    25.350000   38.720001   39.270000    98   929
   932  HC    23.940001   38.010002   38.559998    98   929
   933  OH    24.230001   37.570000   40.470001    96   929   934
   934  HO    23.570002   36.939999   40.139999    97   933
   935  CT    25.100000   28.680000   17.570000    99   936   937   938   939
   936  HC    24.709999   28.250000   18.530001    98   935
   937  HC    24.890001   28.020000   16.770000    98   935
   938  HC    26.180000   28.660000   17.660000    98   935
   939  OH    24.500000   29.849998   17.430000    96   935   940
   940  HO    23.750000   29.650000   16.870001    97   939
   941  CT    32.869999   42.099998   21.600000    99   942   943   944   945
   942  HC    33.529999   41.529999   21.000000    98   941
   943  HC    31.840000   41.950001   21.380001    98   941
   944  HC    33.110001   43.139999   21.510000    98   941
   945  OH    33.209999   41.620003   22.900000    96   941   946
   946  HO    34.189999   41.599998   22.860001    97   945
   947  CT    27.190001   35.739998   41.919998    99   948   949   950   951
   948  HC    26.129999   35.849998   42.059998    98   947
   949  HC    27.660000   36.600002   41.490002    98   947
   950  HC    27.700001   35.520000   42.859997    98   947
   951  OH    27.309999   34.709999   40.989998    96   947   952
   952  HO    27.740000   34.970001   40.159996    97   951
   953  CT    41.900002   27.550001   33.870003    99   954   955   956   957
   954  HC    41.240002   28.280001   33.329998    98   953
   955  HC    42.859997   28.070000   34.000000    98   953
   956  HC    41.440002   27.260000   34.849998    98   953
   957  OH    42.119999   26.289999   33.290001    96   953   958
   958  HO    41.290001   25.990000   32.950001    97   957
   959  CT    18.830000   36.250000   25.039999    99   960   961   962   963
   960  HC    19.719999   36.720001   25.410000    98   959
   961  HC    18.389999   35.860001   25.950001    98   959
   962  HC    18.190001   37.070000   24.709999    98   959
   963  OH    19.010000   35.459999   23.889999    96   959   964
   964  HO    18.170000   35.060001   23.570002    97   963
   965  CT    26.340000   15.000000   28.360001    99   966   967   968   969
   966  HC    27.130001   14.720000   28.980000    98   965
   967  HC    26.010000   15.950001   28.880001    98   965
   968  HC    26.789999   15.230000   27.379999    98   965
   969  OH    25.250000   14.150000   28.169998    96   965   970
   970  HO    24.709999   14.740000   27.660000    97   969
   971  CT    35.090000   24.960001   18.559999    99   972   973   974   975
   972  HC    34.939999   23.870001   18.570000    98   971
   973  HC    36.129997   25.160000   18.510000    98   971
   974  HC    34.739998   25.309999   19.570000    98   971
   975  OH    34.349998   25.559999   17.560001    96   971   976
   976  HO    34.760002   25.270000   16.750000    97   975
   977  CT    42.010002   32.550003   29.760000    99   978   979   980   981
   978  HC    41.720001   32.349998   28.750000    98   977
   979  HC    41.360001   33.270000   30.200001    98   977
   980  HC    43.000000   33.000000   29.840000    98   977
   981  OH    41.889999   31.380001   30.660000    96   977   982
   982  HO    42.740002   30.910000   30.570000    97   981
   983  CT    39.380001   29.540001   36.450001    99   984   985   986   987
   984  HC    39.200001   28.910000   37.320000    98   983
   985  HC    39.660000   28.780001   35.700001    98   983
   986  HC    40.270000   30.200001   36.530003    98   983
   987  OH    38.220001   30.280001   36.250000    96   983   988
   988  HO    38.169998   30.639999   35.330002    97   987
   989  CT    32.439999   16.150000   35.230000    99   990   991   992   993
   990  HC    31.359999   16.030001   35.520000    98   989
   991  HC    32.550003   15.320000   34.549999    98   989
   992  HC    32.980000   15.959999   36.150002    98   989
   993  OH    32.739998   17.450001   34.770000    96   989   994
   994  HO    33.000000   17.430000   33.860001    97   993
   995  CT    36.630001   40.919998   31.000000    99   996   997   998   999
   996  HC    36.730000   41.739998   31.689999    98   995
   997  HC    35.770000   41.030003   30.380001    98   995
   998  HC    36.440002   39.939999   31.420000    98   995
   999  OH    37.799999   40.879997   30.190001    96   995  1000
  1000  HO    37.509998   40.480000   29.340000    97   999
  1001  CT    41.059998   22.799999   33.919998    99  1002  1003  1004  1005
  1002  HC    40.689999   22.290001   33.020000    98  1001
  1003  HC    40.310001   23.310001   34.529999    98  1001
  1004  HC    41.700001   23.529999   33.419998    98  1001
  1005  OH    41.739998   21.919998   34.820000    96  1001  1006
  1006  HO    41.079998   21.289999   35.130001    97  1005
  1007  CT    31.779999   32.790001   15.720000    99  1008  1009  1010  1011
  1008  HC    32.809998   33.070000   16.000000    98  1007
  1009  HC    31.280001   33.709999   15.330000    98  1007
  1010  HC    31.820000   32.090000   14.880000    98  1007
  1011  OH    31.210001   32.449997   16.990000    96  1007  1012
  1012  HO    31.630001   31.610001   17.250000    97  1011
  1013  CT    37.970001   16.230000   29.030001    99  1014  1015  1016  1017
  1014  HC    37.009998   16.280001   29.489998    98  1013
  1015  HC    38.709999   15.730000   29.660000    98  1013
  1016  HC    37.760002   15.730000   28.129999    98  1013
  1017  OH    38.360001   17.520000   28.610001    96  1013  1018
  1018  HO    37.950001   18.160000   29.180000    97  1017
  1019  CT    35.090000   35.910000   17.139999    99  1020  1021  1022  1023
[...]
  152 HC              -0.008564694      -0.007556129      -0.015899158
  153 OH               0.000008937       0.005562882      -0.007711861
  154 HO              -0.003283360       0.001131719       0.010991840
  155 CT              -0.034441364      -0.003517934      -0.029361032
  156 HC               0.000891238       0.002227121       0.010738574
  157 HC               0.004582523       0.009429004       0.002895853
  158 HC               0.002207691       0.003314419       0.012066221
  159 OH               0.020417946      -0.009682058      -0.001621949
  160 HO               0.006976125       0.000822047       0.000921429
  161 CT              -0.006962922      -0.007398338       0.038305315
  162 HC               0.000266652       0.012308254      -0.009897347
  163 HC               0.003955259       0.004964504      -0.011792000
  164 HC              -0.001461915      -0.008606581      -0.001141821
  165 OH              -0.019871689      -0.006291502       0.000559011
  166 HO               0.028326832       0.006084911      -0.017282404
  167 CT               0.001697725       0.046271164       0.025212557
  168 HC               0.016602337       0.003823779      -0.005326037
  169 HC              -0.007466825      -0.010323959       0.002947360
  170 HC              -0.007363837      -0.032359931      -0.003526433
  171 OH              -0.020682705      -0.024257468      -0.006029012
  172 HO               0.014718578       0.016610689      -0.017628306
  173 CT               0.006429558      -0.000969349      -0.012155051
  174 HC              -0.011396618       0.012030930      -0.001152459
  175 HC               0.001667780      -0.021794859       0.002004115
  176 HC               0.000963355      -0.004175426       0.009422243
  177 OH              -0.039271123      -0.023902173       0.013662443
  178 HO               0.039771451       0.036729130      -0.012476669
  179 CT              -0.011801145      -0.074550692       0.018834428
  180 HC              -0.008751791       0.005160407      -0.006710718
  181 HC              -0.004321763       0.041267199      -0.017812101
  182 HC               0.013719419       0.018258846      -0.007128089
  183 OH              -0.006056157      -0.005353556       0.033489929
  184 HO               0.012768231       0.022083574      -0.021382572
  185 CT              -0.004969923       0.015031455      -0.013869756
  186 HC              -0.011779607       0.004234068       0.006189874
  187 HC               0.000455527      -0.014719009       0.004920788
  188 HC               0.014756025       0.003199166       0.006170130
  189 OH              -0.018500126       0.007063870       0.001482866
  190 HO               0.020232778      -0.015352257      -0.006466363
  191 CT               0.020849929      -0.024859481       0.043453795
  192 HC              -0.036696023       0.002853120      -0.042507567
  193 HC               0.011776145       0.009060665       0.007679734
  194 HC              -0.001378227      -0.001325652      -0.000320523
  195 OH               0.003382486       0.028730648      -0.013037878
  196 HO               0.001814436      -0.013750033      -0.003558673
  197 CT               0.006422732      -0.013735564       0.052965059
  198 HC               0.001359957       0.005603202      -0.022879007
  199 HC              -0.004593938       0.016739772      -0.009004030
  200 HC               0.002639239      -0.002294891      -0.008284652
  201 OH              -0.014232908       0.004254553      -0.037199138
  202 HO               0.007873531      -0.007050280       0.017100734
  203 CT              -0.019156284       0.007807490       0.027006649
  204 HC               0.017125150       0.009409388      -0.006822544
  205 HC               0.009598425      -0.001769160      -0.005006278
  206 HC               0.003857349       0.000845182      -0.007986133
  207 OH              -0.035179962      -0.018943167       0.022485679
  208 HO               0.025937104      -0.002034429      -0.035201610
  209 CT              -0.001767463      -0.023424961      -0.004066966
  210 HC               0.016068413      -0.001699242       0.009900703
  211 HC              -0.010256247       0.002808298      -0.014624388
  212 HC               0.001982483       0.025424903      -0.007587564
  213 OH              -0.007436678      -0.001178316       0.010131389
  214 HO              -0.001290881       0.006870843       0.002610976
  215 CT               0.020134620       0.048057572      -0.004602301
  216 HC              -0.008692361      -0.039570666      -0.001032298
  217 HC              -0.008682610       0.000767192       0.006473630
  218 HC              -0.000205566      -0.010542074       0.006983427
  219 OH               0.019854938      -0.004859755      -0.021632204
  220 HO              -0.021084952       0.003066695       0.010885325

                   MAXIMUM GRADIENT =    0.080250388
                       RMS GRADIENT =    0.044585580
  $VIB   
          IVIB=   0 IATOM=   0 ICOORD=   0 E=    -1146.7048674811
  3.787811616E-02-4.284957710E-02 9.367359258E-03 2.067365275E-02 2.308367424E-02
 -2.424076181E-02 6.769405654E-02-8.508824917E-03-1.645056396E-03-4.988644908E-02
 -1.387643832E-02 3.818100590E-02-3.307266405E-02 5.963816858E-03 1.117766021E-02
  3.251359938E-02 5.121890957E-02-5.508088490E-02 1.776240375E-02-7.523513963E-03
 -4.248156745E-02-1.339297086E-02-4.485918661E-02 1.344072792E-02-1.214004826E-02
 -1.360265152E-02 9.373904763E-03-1.184121142E-02 3.559817900E-02 8.964010412E-03
 -5.246097933E-03 8.420431702E-03-3.784144336E-03-5.216784455E-03-1.360923796E-02
  1.539757491E-02 2.212746616E-03-4.550650351E-02 5.230523047E-03-5.356725676E-03
  2.615016846E-02-2.368586738E-02 5.690429323E-04 2.917093291E-02-3.313513336E-03
 -1.961663176E-02 4.885595160E-02 1.143614759E-03-4.017019170E-03-3.887482736E-02
 -8.500883910E-03 8.025038848E-02 2.620721743E-02 1.116164541E-03-4.211267361E-02
  3.769922495E-03 7.512387937E-03 1.152845381E-02-1.800721342E-02 7.010250999E-03
 -3.998773991E-03-9.027068121E-03 3.612111839E-03 8.120933143E-03-2.617510581E-02
 -6.248875585E-03-3.357790197E-03 6.028076971E-03 3.069610771E-03-1.545388832E-03
  1.528983162E-02 1.462998430E-02-5.044771307E-03-2.517489937E-03 1.116640136E-02
  2.439246181E-02-7.818141270E-04 1.364860273E-02-6.092490903E-03-2.305838360E-03
 -2.160124835E-02-5.099259749E-03-1.562457065E-02 1.944084387E-03-6.532210482E-02
  4.588867709E-02-1.120987514E-02-2.371939000E-03-7.682743312E-03 1.357496526E-02
 -1.902203970E-02-1.212758691E-02-1.180996722E-02-2.642364616E-02-8.502229906E-03
  1.157599734E-02 2.789744402E-02-7.019189611E-03 7.223754961E-03-3.881391309E-03
  7.271264171E-03-8.785152483E-03 1.259876308E-02-3.923324310E-02-8.229967158E-03
  1.015738480E-02 1.099080930E-03-6.060966460E-03-4.846663605E-03 5.745315561E-04
 -1.806153674E-03-1.716730838E-02 3.385207281E-02 1.115176378E-02-2.274807274E-02
  6.887947959E-03-1.808132667E-03 1.037124061E-02 6.024658267E-04 5.173771857E-03
 -2.946478954E-02-2.384457610E-02-3.205803841E-05-8.755570175E-05 2.780377715E-03
 -4.463239580E-04 3.433908506E-03 6.965030805E-03 1.266220153E-02 2.866943897E-04
  2.895380684E-03 7.545394477E-03 3.291662687E-02 2.390263033E-03-2.534327177E-02
 -6.504729947E-03 8.982746657E-03 5.970834879E-03 3.850617718E-02-9.948499096E-03
 -5.299173359E-03-8.165411492E-03 8.575930901E-03 1.880009133E-02-2.697893086E-02
 -7.516058043E-03-4.782634687E-03-2.139939516E-03-8.858365275E-03 3.536925360E-03
 -1.090849551E-03 1.606859639E-02 2.226894381E-03 8.495866670E-04-4.991531402E-03
 -5.721343509E-03 2.996044455E-02-5.366614005E-03-3.902763244E-03-5.585787643E-03
  6.844717464E-04-3.600762741E-03-4.331534298E-03 9.387522837E-03-3.654412728E-04
 -1.078308549E-02 3.447698571E-03 5.061521130E-03-2.249012684E-02-1.389127482E-02
 -6.461361463E-03 1.512812088E-02 1.400366440E-03 1.439052746E-02 3.195411805E-02
  2.941213706E-02-5.088528266E-02-1.543701606E-03-3.029694577E-04 1.760796352E-02
 -2.674058265E-03-1.917513272E-02 1.469052169E-02-7.610597780E-03-6.563104928E-03
  1.418899569E-02-9.635547904E-03-1.592369083E-02-6.588107773E-03-1.779435889E-03
  1.014274581E-02 1.282173796E-02-2.550376645E-02 2.578882726E-02 4.385701162E-02
  7.583544909E-03-2.566858101E-02-2.566402017E-02 1.907441431E-02 3.349115247E-03
 -3.634556655E-03 3.303343298E-03-2.231855153E-03-2.320925317E-02-8.198695521E-03
  7.185146275E-03 3.087284215E-02 8.031112419E-04-8.417736519E-03-1.971125990E-02
 -3.841018279E-02 1.253108614E-02 1.133348389E-02 2.646881195E-02 1.620573792E-02
  2.288590716E-02 3.778371863E-03 4.095106997E-03-1.382006712E-02 1.163193617E-02
 -1.905969463E-02-1.249108667E-02 5.918021774E-03-2.268964014E-02-1.758188016E-02
 -8.898241213E-03 6.095675471E-03 1.077384434E-02 8.725864485E-03 2.094403543E-02
  1.358426440E-03 2.348700784E-03-5.455584038E-03 2.714325203E-03-8.888081804E-03
 -7.744993632E-03 4.139775369E-03 1.705346416E-03 3.014105042E-03-3.605895588E-03
 -1.588464284E-02 1.743084269E-04 1.353121579E-03 9.592699355E-03-3.233705908E-03
  4.451350138E-03 2.240115683E-02-3.479633018E-03 2.417224741E-02 1.197793196E-03
 -8.725391523E-03-9.997505769E-03-1.064260194E-03 3.242502774E-03-2.720647017E-05
 -2.141766176E-02-3.792845328E-05 1.626212872E-02 4.015535183E-03-2.253007535E-03
 -3.763873177E-02-5.805848210E-03 1.106965634E-02 8.203474066E-03 5.388891508E-03
  1.598002901E-05-1.914445436E-02 1.346999595E-04 9.627498709E-04 1.029515931E-02
 -1.810490975E-02 4.318949570E-03-2.929824932E-03 9.429979621E-03-3.730029219E-03
  7.207761684E-03 3.537651744E-03-1.566253976E-02-1.935287061E-02 2.683892729E-03
  1.305676065E-02 1.806168549E-02-2.481512038E-02 6.992954501E-03 2.208505288E-02
  1.938474652E-02-6.290208240E-03-4.497901066E-03-4.751735605E-04-1.018779274E-02
 -9.762006724E-03-3.930186327E-03-9.393941543E-03 3.607025421E-03 3.327196797E-03
  1.362109477E-02-1.184211440E-02 3.364906935E-03 7.277922079E-03 3.425292610E-03
  2.135509884E-02-1.857859797E-02 1.764658019E-02-5.431816764E-03-7.852330126E-03
 -5.565647363E-03-1.348000139E-02 1.232918516E-02 3.893089912E-03-1.276066139E-02
  2.770597971E-03-1.715798435E-02 1.897861953E-02 1.306095118E-03 1.252148562E-02
 -5.053095224E-03 7.658881948E-03-9.231575481E-03-1.708844673E-02-4.100594483E-03
 -3.358119251E-02 1.860738910E-02 6.588842183E-03 3.603436298E-03-2.187730068E-03
  9.629777032E-03 1.467655878E-02-9.902417094E-03-3.955346637E-04 4.176573784E-03
 -3.387858096E-03-1.105232369E-03 3.452706820E-03 2.173070204E-02-9.306443103E-03
  1.572019924E-02-5.273788267E-02 3.041838852E-02 2.582202033E-02 1.301812663E-04
 -2.611967372E-02-1.851888192E-02 4.198212603E-02 4.834335589E-03-3.318513346E-04
  9.624262674E-03-1.429042068E-02 8.627981174E-03 2.941038472E-02-8.096138766E-03
 -9.532195164E-03-2.517231890E-02 1.491166316E-02-1.168949545E-02 1.230717769E-02
  2.026362648E-03 2.251907338E-02 7.042796657E-03 1.010116964E-02-9.796725714E-03
 -6.759134942E-04-2.359325287E-02-5.242637042E-03-7.305478002E-03-1.099895586E-03
 -1.058180728E-02-9.662777098E-03 1.199017362E-02 2.834944110E-02 5.655461117E-04
  2.257618651E-03-2.849818457E-02-3.328180726E-03-4.377159477E-02-2.629224402E-02
 -8.603973422E-03 1.252389954E-03 3.612452981E-02 4.709430300E-03 2.132438417E-02
  6.248807200E-03 8.086442350E-04 1.258841149E-02 8.555084951E-03-2.072550041E-04
  1.425801179E-03-4.233685847E-03 1.213677271E-02 1.258492814E-02-1.904865196E-02
  1.057377987E-02 3.683616007E-02-4.716225987E-02-3.413899277E-03-8.190765362E-03
 -6.749640666E-03-6.848010772E-03-1.902722245E-02 2.277188834E-03 1.549146156E-02
  7.165474378E-04 1.282707812E-02-1.781345315E-02-1.308221112E-02 3.789360980E-02
  1.580411309E-03 1.002240868E-03 9.620318816E-04-2.333543442E-02 2.121031645E-02
 -2.552239013E-02 2.537477803E-02 1.655828420E-02 1.931276203E-02-4.297464294E-03
 -3.251105350E-03 9.160597023E-03 5.065306802E-03-1.697628445E-02 7.046689476E-03
 -5.797742660E-03-2.106474812E-02-9.810572584E-03 2.576091268E-03 7.849934410E-04
 -2.862821972E-03-4.912095235E-02-4.554117072E-03-1.512756887E-02 2.957403417E-03
 -1.938911797E-03 1.452785837E-02 1.432946348E-03 3.726015770E-03 8.805912308E-04
  2.264330405E-02 1.161247107E-02 9.811145974E-03 3.207020040E-02-1.848297897E-02
 -1.117308061E-02-7.612904530E-03 7.489022875E-03 1.015801602E-02 7.724689389E-03
  1.247372734E-02 1.295862864E-03 1.637090207E-02-1.536859291E-03 3.102996010E-03
 -6.948870508E-03-8.512497649E-03 9.704658301E-03-8.564693743E-03-7.556129333E-03
 -1.589915791E-02 8.937451871E-06 5.562881923E-03-7.711860722E-03-3.283359729E-03
  1.131719412E-03 1.099184005E-02-3.444136403E-02-3.517933719E-03-2.936103237E-02
  8.912379714E-04 2.227121379E-03 1.073857390E-02 4.582523382E-03 9.429003594E-03
  2.895852876E-03 2.207690931E-03 3.314419208E-03 1.206622061E-02 2.041794622E-02
 -9.682058001E-03-1.621948832E-03 6.976124917E-03 8.220471933E-04 9.214287615E-04
 -6.962922300E-03-7.398337572E-03 3.830531468E-02 2.666515001E-04 1.230825364E-02
 -9.897346699E-03 3.955259405E-03 4.964504147E-03-1.179200017E-02-1.461914857E-03
 -8.606581489E-03-1.141821497E-03-1.987168884E-02-6.291501704E-03 5.590114739E-04
  2.832683153E-02 6.084910971E-03-1.728240350E-02 1.697725033E-03 4.627116422E-02
  2.521255711E-02 1.660233725E-02 3.823778945E-03-5.326037059E-03-7.466825090E-03
 -1.032395945E-02 2.947360388E-03-7.363837429E-03-3.235993091E-02-3.526433269E-03
 -2.068270480E-02-2.425746756E-02-6.029011567E-03 1.471857763E-02 1.661068850E-02
 -1.762830582E-02 6.429557946E-03-9.693494790E-04-1.215505100E-02-1.139661841E-02
  1.203092973E-02-1.152458576E-03 1.667780101E-03-2.179485903E-02 2.004114862E-03
  9.633551143E-04-4.175425582E-03 9.422243006E-03-3.927112277E-02-2.390217274E-02
  1.366244337E-02 3.977145134E-02 3.672913043E-02-1.247666869E-02-1.180114458E-02
 -7.455069248E-02 1.883442836E-02-8.751790576E-03 5.160407493E-03-6.710718021E-03
 -4.321763363E-03 4.126719949E-02-1.781210108E-02 1.371941946E-02 1.825884555E-02
 -7.128089092E-03-6.056156864E-03-5.353556439E-03 3.348992930E-02 1.276823132E-02
  2.208357386E-02-2.138257185E-02-4.969922877E-03 1.503145451E-02-1.386975632E-02
 -1.177960718E-02 4.234068227E-03 6.189874090E-03 4.555270697E-04-1.471900903E-02
  4.920787570E-03 1.475602502E-02 3.199166393E-03 6.170130378E-03-1.850012587E-02
  7.063870113E-03 1.482865965E-03 2.023277829E-02-1.535225652E-02-6.466363229E-03
  2.084992864E-02-2.485948119E-02 4.345379455E-02-3.669602295E-02 2.853120291E-03
 -4.250756711E-02 1.177614465E-02 9.060665027E-03 7.679734341E-03-1.378226897E-03
 -1.325651542E-03-3.205234848E-04 3.382486356E-03 2.873064815E-02-1.303787803E-02
  1.814435930E-03-1.375003306E-02-3.558672571E-03 6.422732206E-03-1.373556405E-02
  5.296505866E-02 1.359956900E-03 5.603201518E-03-2.287900672E-02-4.593938157E-03
  1.673977217E-02-9.004029607E-03 2.639238869E-03-2.294890556E-03-8.284652109E-03
 -1.423290795E-02 4.254553234E-03-3.719913792E-02 7.873530710E-03-7.050280337E-03
  1.710073447E-02-1.915628437E-02 7.807489501E-03 2.700664873E-02 1.712514968E-02
  9.409388338E-03-6.822543889E-03 9.598425113E-03-1.769160462E-03-5.006278298E-03
  3.857348759E-03 8.451819663E-04-7.986132560E-03-3.517996185E-02-1.894316748E-02
  2.248567928E-02 2.593710379E-02-2.034428789E-03-3.520161014E-02-1.767462635E-03
 -2.342496084E-02-4.066966164E-03 1.606841285E-02-1.699242071E-03 9.900703136E-03
 -1.025624673E-02 2.808298173E-03-1.462438847E-02 1.982482852E-03 2.542490331E-02
 -7.587563785E-03-7.436677722E-03-1.178316225E-03 1.013138908E-02-1.290880772E-03
  6.870842725E-03 2.610976219E-03 2.013462041E-02 4.805757231E-02-4.602301215E-03
 -8.692360931E-03-3.957066608E-02-1.032298270E-03-8.682610182E-03 7.671917405E-04
  6.473630466E-03-2.055661337E-04-1.054207390E-02 6.983426926E-03 1.985493838E-02
 -4.859755036E-03-2.163220369E-02-2.108495197E-02 3.066694666E-03 1.088532498E-02
  0.000000000E+00 0.000000000E+00 0.000000000E+00

..... END OF SINGLE POINT GRADIENT .....
 CPU     0: STEP CPU TIME=     0.00 TOTAL CPU TIME=         29.3 (      0.5 MIN)
 TOTAL WALL CLOCK TIME=         31.4 SECONDS, CPU UTILIZATION IS    93.57%
 EXECUTION OF GAMESS TERMINATED NORMALLY 14:06:51 24-JAN-2023    
    119952308 WORDS OF DYNAMIC MEMORY USED
 DDI: 263640 bytes (0.3 MB / 0 MWords) used by master data server.

 ----------------------------------------
 CPU timing information for all processes
 ========================================
 0: 27.932 + 1.689 = 29.622
 1: 26.986 + 1.624 = 28.611
 2: 26.889 + 1.502 = 28.392
 3: 26.721 + 1.809 = 28.530
 4: 26.360 + 1.767 = 28.127
 5: 27.47 + 1.620 = 28.667
 6: 27.200 + 1.591 = 28.792
 7: 27.128 + 1.592 = 28.721
 8: 27.503 + 1.485 = 28.988
 9: 27.237 + 1.516 = 28.754
 10: 26.542 + 1.706 = 28.248
 11: 26.380 + 1.385 = 27.765
 ----------------------------------------
 ddikick.x: exited gracefully.
----- accounting info -----
Files used on the master node p0182.ten.osc.edu were:
-rw-r--r-- 1 danilk PCON0010   1948487 Jan 24 14:06 /tmp/slurmtmp.14539908/14539908/MTDP-GS-DFT-147.G.tmp.F05
-rw-r--r-- 1 danilk PCON0010 579158608 Jan 24 14:06 /tmp/slurmtmp.14539908/14539908/MTDP-GS-DFT-147.G.tmp.F08
-rw-r--r-- 1 danilk PCON0010 565717712 Jan 24 14:06 /tmp/slurmtmp.14539908/14539908/MTDP-GS-DFT-147.G.tmp.F08.001
-rw-r--r-- 1 danilk PCON0010 561397424 Jan 24 14:06 /tmp/slurmtmp.14539908/14539908/MTDP-GS-DFT-147.G.tmp.F08.002
-rw-r--r-- 1 danilk PCON0010 560197344 Jan 24 14:06 /tmp/slurmtmp.14539908/14539908/MTDP-GS-DFT-147.G.tmp.F08.003
-rw-r--r-- 1 danilk PCON0010 563557568 Jan 24 14:06 /tmp/slurmtmp.14539908/14539908/MTDP-GS-DFT-147.G.tmp.F08.004
-rw-r--r-- 1 danilk PCON0010 557077136 Jan 24 14:06 /tmp/slurmtmp.14539908/14539908/MTDP-GS-DFT-147.G.tmp.F08.005
-rw-r--r-- 1 danilk PCON0010 571478096 Jan 24 14:06 /tmp/slurmtmp.14539908/14539908/MTDP-GS-DFT-147.G.tmp.F08.006
-rw-r--r-- 1 danilk PCON0010 583238880 Jan 24 14:06 /tmp/slurmtmp.14539908/14539908/MTDP-GS-DFT-147.G.tmp.F08.007
-rw-r--r-- 1 danilk PCON0010 576758448 Jan 24 14:06 /tmp/slurmtmp.14539908/14539908/MTDP-GS-DFT-147.G.tmp.F08.008
-rw-r--r-- 1 danilk PCON0010 563077536 Jan 24 14:06 /tmp/slurmtmp.14539908/14539908/MTDP-GS-DFT-147.G.tmp.F08.009
-rw-r--r-- 1 danilk PCON0010 563077536 Jan 24 14:06 /tmp/slurmtmp.14539908/14539908/MTDP-GS-DFT-147.G.tmp.F08.010
-rw-r--r-- 1 danilk PCON0010 554196944 Jan 24 14:06 /tmp/slurmtmp.14539908/14539908/MTDP-GS-DFT-147.G.tmp.F08.011
-rw-r--r-- 1 danilk PCON0010  22544080 Jan 24 14:06 /tmp/slurmtmp.14539908/14539908/MTDP-GS-DFT-147.G.tmp.F10
-rw-r--r-- 1 danilk PCON0010   4128272 Jan 24 14:06 /tmp/slurmtmp.14539908/14539908/MTDP-GS-DFT-147.G.tmp.F22
-rw-r--r-- 1 danilk PCON0010   4128272 Jan 24 14:06 /tmp/slurmtmp.14539908/14539908/MTDP-GS-DFT-147.G.tmp.F22.001
-rw-r--r-- 1 danilk PCON0010   4128272 Jan 24 14:06 /tmp/slurmtmp.14539908/14539908/MTDP-GS-DFT-147.G.tmp.F22.002
-rw-r--r-- 1 danilk PCON0010   4128272 Jan 24 14:06 /tmp/slurmtmp.14539908/14539908/MTDP-GS-DFT-147.G.tmp.F22.003
-rw-r--r-- 1 danilk PCON0010   4128272 Jan 24 14:06 /tmp/slurmtmp.14539908/14539908/MTDP-GS-DFT-147.G.tmp.F22.004
-rw-r--r-- 1 danilk PCON0010   4128272 Jan 24 14:06 /tmp/slurmtmp.14539908/14539908/MTDP-GS-DFT-147.G.tmp.F22.005
-rw-r--r-- 1 danilk PCON0010   4128272 Jan 24 14:06 /tmp/slurmtmp.14539908/14539908/MTDP-GS-DFT-147.G.tmp.F22.006
-rw-r--r-- 1 danilk PCON0010   4128272 Jan 24 14:06 /tmp/slurmtmp.14539908/14539908/MTDP-GS-DFT-147.G.tmp.F22.007
-rw-r--r-- 1 danilk PCON0010   4128272 Jan 24 14:06 /tmp/slurmtmp.14539908/14539908/MTDP-GS-DFT-147.G.tmp.F22.008
-rw-r--r-- 1 danilk PCON0010   4128272 Jan 24 14:06 /tmp/slurmtmp.14539908/14539908/MTDP-GS-DFT-147.G.tmp.F22.009
-rw-r--r-- 1 danilk PCON0010   4128272 Jan 24 14:06 /tmp/slurmtmp.14539908/14539908/MTDP-GS-DFT-147.G.tmp.F22.010
-rw-r--r-- 1 danilk PCON0010   4128272 Jan 24 14:06 /tmp/slurmtmp.14539908/14539908/MTDP-GS-DFT-147.G.tmp.F22.011
Tue Jan 24 14:06:56 EST 2023
0.837u 1.481s 0:38.64 5.9%	0+0k 3808+4080io 0pf+0w
