 $system timlim=999999100 mwords=500 $end
 $contrl scftyp=reks runtyp=gradient
  dfttyp=bhhlyp icharg=+1
  maxit=200 mult=1
 $end
 $reks rextype=1 rextarget=XXX rxcgth=1.0d-06 $end
! rextype=1 defines that it's SSR(2,2) calculation as oppose to SSR(3,2)
! rextarget=XXX has to remain this way, because root number is assigned
! in Project.in2 input file and is written in place of XXX.
! Such assigment allows for modification of NAMD state
! by "surfacehop" module of OpenMolcas.
 $dft nrad=48 nleb=86 $end
 $SCF NCONV=7 $end
 $basis gbasis=n31 ngauss=6 ndfunc=1 $end
 $guess guess=moread norb=106 $end
! The "norb" is specific to your system and could be found 
! by searching for this line: 
! "NUMBER OF CARTESIAN GAUSSIAN BASIS FUNCTIONS =",
! which will be printed during your "Generate-Vec" calculations
 $DATA 
 Gas Phase ! When C1 symmetry, this line always have to be either empty or contain the comment
 C1 
H      1.0 1.424232155616974 -3.2158149933631064 0.3634743710197473
N      7.0 1.0407011494327847 -2.3049556111267977 0.837824042151048
H      1.0 1.3124747229959468 -2.2003629959505675 1.8823512692005144
C      6.0 -1.2023281436624307 2.820295840910195 -0.7501152786022148
C      6.0 -0.7765225093363229 1.5694488324231506 -0.6624851332215042
C      6.0 -0.29478954790860207 1.074364650331783 0.6033083687173132
C      6.0 0.2441712323955542 -0.09735779837310805 1.0245733572953195
C      6.0 0.527982266220511 -1.2702265840694495 0.257719960133601
H      1.0 -1.5192919484597822 3.240945085409256 -1.7325309009038707
H      1.0 -0.3810713133520321 1.7652603388254415 1.2349047352208178
H      1.0 -1.2489273924187336 3.5949082784784845 0.10928652343422661
H      1.0 0.30038745475177003 -0.15778210597552325 2.0484142858986725
C      6.0 0.30840535488437737 -1.3904777187469788 -1.2303685646236415
H      1.0 -1.0678169265867887 0.8340563072618963 -1.5712901550439737
H      1.0 0.9368253515670376 -0.4836900014802524 -1.7273649105602151
H      1.0 -0.6146705332086454 -1.1901040258083433 -1.4941338451697557
H      1.0 0.6130716817663079 -2.40312241016666 -1.730772146904083
 $END
 ! Here you have to place $VEC group generated in your "Generate-Vec" calculations
 $VEC 
 1  1 2.76218935E-04-2.51017302E-04 9.93624740E-01 3.08061278E-02 3.63117581E-05
 1  2 2.60643563E-04-1.03100182E-04 9.24232938E-04 1.65252822E-04-5.02731540E-04
 1  3 1.66698864E-04-6.29796153E-03-6.25210506E-03-6.30300286E-03-3.51221884E-05
 1  4 1.72213687E-05-4.42611421E-05 3.19205387E-04-1.77745108E-04-3.21797928E-07
 1  5-2.97740956E-07-2.01361048E-06 3.57378628E-06-2.45963190E-06-7.35221738E-05
 1  6-3.02909592E-06 3.28630734E-05 2.19985060E-05-1.08934360E-06-1.76725305E-06
 1  7-8.00858617E-07-3.98442361E-07 6.28948108E-07-5.95137682E-08-4.61386433E-07
 1  8 6.58515733E-07 2.37939021E-06-3.36998936E-06-2.00926803E-06 3.96706675E-05
 1  9-4.03399975E-05 8.51101963E-05-2.79215512E-05-1.65890062E-06-1.51066519E-08
 1 10-6.04179544E-06 6.75574177E-07-2.62647495E-06 3.79429724E-06-4.74488451E-06
 1 11-1.88750676E-05-8.77743707E-07 1.13197782E-05 1.24192270E-05-8.58747025E-05
 1 12 1.25225224E-06-6.72661395E-05-6.17824241E-05-1.01200548E-05 3.70615151E-06
 1 13 6.02922587E-07-1.19551424E-05 1.18667219E-05-2.01079432E-05-3.89731715E-06
 1 14 1.68209363E-05-9.49523143E-06 2.05501308E-05 1.30807584E-05-1.32965604E-05
 1 15-9.29661906E-05 1.40323062E-04-2.99216858E-04-3.28540155E-05-7.60389673E-05
 1 16 1.72572681E-05 2.51490936E-05 1.16348080E-05 1.42634164E-05 6.08250228E-05
 1 17 2.46135412E-04 6.86861467E-05-1.42509723E-04 7.73426541E-05 4.95103268E-04
 1 18 3.82789164E-04-6.42725978E-04 5.75583115E-04-3.61984888E-05-6.18642166E-05
 1 19-1.50614606E-05 2.76160164E-05-1.72086351E-05 4.72669347E-05 2.95209915E-06
 1 20 1.05072024E-05 1.46486110E-05 7.15323297E-05-6.94401517E-07-1.30500223E-05
 1 21 1.62759497E-05 1.64287619E-04-8.40993885E-06-5.58466406E-06-1.09063434E-05
 1 22 4.48837654E-06-2.66308356E-05 3.22240240E-04-8.28404371E-05 2.59396944E-04
 1 23 1.29043191E-04-2.70018730E-05-2.49953743E-05-4.25235719E-05 6.79622772E-06
 1 24-2.26277669E-05 4.84638277E-05 7.48142567E-06-2.29824568E-05-1.10290016E-05
 1 25-6.13078734E-05-1.41073510E-05-6.82210506E-05 3.24176308E-06 1.06522514E-04
 2  1-2.23749318E-05-4.05805894E-04-3.21025111E-04 9.39553652E-05 9.45788341E-05
 2  2-2.21853669E-04 1.31454747E-04-3.17516915E-04 6.04834724E-04-1.05616106E-03
 2  3 4.56060503E-04-3.82588544E-05-4.72937450E-04-2.62835074E-04 3.15089667E-04
 2  4-1.92521066E-04 2.58713516E-04 6.58268541E-05-2.31491099E-04-3.27272295E-06
 2  5 7.78920434E-06-8.19846485E-06 2.23493837E-05 7.84015256E-06-3.92314322E-04
 2  6-3.15509664E-05 1.70380753E-04-3.19383323E-05-5.23304332E-07-1.05462129E-05
 2  7 3.75233464E-07-2.72061075E-06 4.07101616E-06 2.18764033E-07-2.22239600E-05
 2  8-2.79130423E-05 2.75758264E-05-1.66022715E-05 5.77003207E-06 7.41044147E-04
 2  9-1.60459649E-04 2.40415952E-04 5.23832138E-06-1.76042848E-05-8.07691349E-06
 2 10-2.63595185E-05 1.61109864E-06-1.82377549E-06 1.10893221E-05-7.52264883E-06
 2 11-1.04683091E-04-2.53650284E-05 9.69172317E-05 3.52658681E-05-8.93862115E-04
 2 12 1.36516862E-05-1.37329986E-05 2.44372260E-04-4.59801675E-05 4.90340541E-05
 2 13 4.79446351E-05-5.08311229E-05 4.20156939E-05-4.55503658E-05 2.56071160E-03
 2 14-2.30781307E-04-3.84895679E-05 1.83727794E-04 2.32442654E-04 4.85375660E-03
 2 15 1.17329690E-04-1.32509752E-03-2.70092935E-03-2.34465133E-04-4.81277613E-04
 2 16-2.74012874E-04 9.12102714E-05 2.84835047E-05-8.59540786E-05 9.94045197E-01
 2 17 4.01279489E-02 3.65679504E-04-6.34120890E-04 3.90390767E-04-1.28004902E-02
 2 18 1.29927247E-03-3.00309817E-03 1.89401847E-03-6.42622290E-03-5.68773614E-03
 2 19-6.04571672E-03-4.59762638E-04 2.12481357E-04-2.08109720E-04-1.36999484E-06
 2 20 8.52949514E-06 1.89769110E-05 2.61911044E-04 1.63664573E-05-2.34878126E-05
 2 21 1.01950306E-05 7.93289629E-04 1.80714341E-03-5.22322957E-05-6.88804047E-05
 2 22 2.02074074E-05-1.62978731E-04 3.78937387E-03 2.25996304E-04 7.42896020E-04
 2 23 2.29057906E-03-7.90636927E-05-1.70438429E-04-4.21173764E-04 4.97393096E-05
 2 24-8.10223443E-05 8.21068130E-05 5.23424314E-05-3.23851889E-04-2.15068231E-04
 2 25 2.75417468E-04-2.27598815E-04 4.34274335E-04-7.18147834E-05 3.35401435E-04
 3  1 3.21421814E-05 1.27264973E-04-2.92751234E-05-1.23987726E-04 8.57754134E-07
 3  2-8.81210175E-06-2.09166387E-05 1.14566412E-03-2.48814585E-04 6.45900126E-04
 3  3 3.23677730E-05-5.75628873E-05 2.82861968E-07-7.28437778E-05-3.02059788E-05
 3  4 9.57746031E-06-1.47024197E-05-6.89647074E-05 3.18355954E-05 4.92034484E-04
 3  5-1.23901703E-04-3.71461949E-06-5.18179369E-06 1.37950536E-05 2.97810725E-04
 3  6 7.50598567E-07-1.38394106E-04-2.91700470E-04-2.27420563E-05 6.82171322E-05
 3  7 4.47674224E-05-4.75878787E-05 3.24813963E-05-1.64409535E-05 1.36404818E-02
 3  8 3.48798546E-04-7.02898208E-05 4.15077687E-05-2.59177386E-04 4.36992862E-03
 3  9 8.50401823E-04-1.23793157E-03 1.86137632E-03-2.72376192E-04-3.24617376E-04
 3 10-6.36731643E-04 5.02898975E-05-1.11057229E-04 3.88048338E-05 9.93418443E-01
 3 11 4.14945381E-02 5.60823252E-05 1.08636216E-04 8.88587105E-05-1.56102348E-02
 3 12-2.76388048E-05 6.63380767E-04 1.22444841E-03-6.86781665E-03-6.18676083E-03
 3 13-6.38472952E-03-3.33788801E-04 1.80344332E-04-1.79087558E-06 2.55109204E-02
 3 14 5.82004156E-04 1.54737644E-04-3.28565908E-04 1.59073603E-04 5.32365369E-03
 3 15-6.94406709E-04 1.01353150E-03-1.56627929E-03-3.79469038E-04-6.04143571E-04
 3 16-4.46657253E-04 1.17561420E-04-3.31676096E-05 1.53028990E-05-7.89727038E-05
 3 17-4.29445340E-05 2.20725090E-05-4.95962548E-05 2.25459401E-05-1.71568400E-03
 3 18-1.95298209E-04 2.37945848E-05-9.24381843E-04-1.82819231E-05-2.83074571E-06
 3 19 1.17034817E-05 3.87671468E-06-1.64351349E-05 5.60941733E-05-4.65230417E-05
 3 20-2.55103945E-06-3.48138450E-04 2.45857050E-03 2.63653628E-05-1.97618933E-05
 3 21-6.63819511E-07 2.12719888E-04-1.17919424E-04 2.79337210E-05 5.09497456E-07
 3 22-3.13444218E-06-2.66828293E-05-3.70175153E-04 1.50974519E-05-1.16839571E-04
 3 23-8.77213001E-05 4.90086807E-06-9.35406046E-06 3.04357309E-06 6.14746671E-06
 3 24 3.01180495E-06-1.03239803E-05-1.34119547E-04-5.97788911E-05-1.48852922E-05
 3 25 7.64679071E-05 3.21723037E-06 3.33875831E-05 7.83034264E-06-4.43799625E-05
 4  1-5.15329920E-05 1.17697259E-04-5.16092212E-05-2.79081743E-04 1.99733530E-05
 4  2-1.17609931E-05 6.42736843E-05 1.41866043E-03-2.87950020E-04 7.31841267E-04
 4  3-9.50937707E-05-1.75036443E-04-5.69363457E-07-5.78210582E-05-9.21522070E-05
 4  4 3.54611257E-05-1.40003892E-05-3.12515793E-05 9.77935981E-05-1.42970837E-04
 4  5-1.04939793E-04 2.51932603E-05-5.16644357E-05 1.21507143E-05 1.66256250E-03
 4  6 2.76207051E-04-7.97970814E-04 4.22148519E-05-3.07401742E-05 4.24792304E-05
 4  7-2.73806208E-05-3.98083261E-05 1.11066235E-05-1.54741892E-05-1.41376270E-04
 4  8 3.99658840E-05-2.12032636E-05 1.18787340E-04 3.91619598E-05-6.56048043E-04
 4  9 4.47465660E-04-1.57036490E-03 7.22449062E-05-1.47596824E-05-1.00139202E-04
 4 10 3.36054029E-05 3.38323114E-05 2.63731343E-05-6.03336954E-06 1.42308815E-04
 4 11 4.74189825E-05-1.24631298E-05 3.34654940E-05 2.05326209E-05 2.17777507E-04
 4 12 1.47097813E-04 1.59907321E-04 7.21617481E-04-1.06091625E-05-1.45093439E-05
 4 13-3.55271017E-05 3.27606494E-06-8.15917057E-06-1.92474317E-05-5.55939518E-04
 4 14-1.84512191E-04-2.15019440E-06 3.17788576E-05 8.99252455E-05 9.08708287E-04
 4 15 4.39525683E-04-1.24687006E-03-3.08274173E-04-4.63324846E-05 1.06235552E-04
 4 16-4.16189352E-06-7.39913950E-05 3.98503033E-06 2.03160933E-05-2.07617717E-03
 4 17-8.89295277E-05 8.65479719E-06 9.08341179E-05 1.75436997E-04 2.84788886E-03
 4 18-7.66719720E-04-2.38132347E-04-3.96403137E-03-1.47609128E-04-2.07863911E-04
 4 19-5.67592095E-04 3.38058579E-05-4.60052030E-05-7.43061577E-05-4.55305777E-05
 4 20 6.15850760E-05-4.07992419E-05-2.86429459E-04-2.67236617E-05 7.44620102E-05
 4 21-1.12108862E-05 1.43591990E-04 9.94052214E-01 4.16786395E-02-1.66346532E-04
 4 22 2.20593310E-04 3.89894872E-04-1.76300617E-02 4.74918759E-04-9.31252372E-04
 4 23-1.65308566E-03-6.06825066E-03-6.31890191E-03-6.29444165E-03-1.05165758E-04
 4 24 1.10981251E-04 8.14477340E-06-4.37691116E-05-4.43466866E-04 2.75418557E-04
 4 25 2.24558067E-03 2.13686583E-05 3.58590766E-03 7.83521984E-05 1.92411081E-03
 5  1-8.90278784E-07 9.50588791E-06-7.22039067E-06-2.83923060E-05 2.03369578E-06
 5  2-5.49861823E-06-4.44500033E-07 1.47235238E-04-4.86306710E-05 7.76245914E-05
 5  3-8.61798684E-05-1.99441598E-05-5.17355880E-06-9.26242435E-06-1.03087298E-05
 5  4 8.05517983E-06-1.01264764E-05-7.17459674E-06 4.80667443E-05 9.88180295E-01
 5  5 3.99888257E-02 1.53327233E-04-2.38880729E-04 1.98185367E-05-1.16820350E-02
 5  6-3.07536165E-04 8.42973046E-04 1.67167604E-04-6.66369970E-03-6.07077514E-03
 5  7-6.47921127E-03-2.55666352E-04 8.18589511E-05-5.34141969E-05 1.06286884E-01
 5  8 3.96323546E-03 1.31642858E-04-3.53883450E-04 4.70851897E-05 2.05489985E-03
 5  9-7.97463568E-04 1.60902276E-03-1.02831525E-03-8.26420725E-04-9.64605694E-04
 5 10-9.82637793E-04 6.87710554E-05-3.86837478E-05-6.41084730E-06-1.99906875E-03
 5 11-2.56972377E-04 2.75126536E-05-7.11524062E-05 4.21915961E-05 1.85150246E-04
 5 12-6.78835099E-04 1.31614870E-03-9.69292084E-04-1.71696542E-05 3.05945589E-05
 5 13 6.88953154E-05-2.88768506E-05 3.82599507E-05-3.18915319E-05-5.17783196E-04
 5 14-9.73969553E-05 5.70258196E-06-8.13393250E-06 2.48016750E-06 1.19645530E-03
 5 15-3.85818892E-04 8.67580668E-04-1.70006328E-04-1.79229962E-05-9.11893386E-06
 5 16 7.56730583E-06-1.24449497E-05 1.50252844E-05-1.52046991E-05 6.21883527E-06
 5 17 7.97905195E-06 9.47299608E-08-4.44560178E-06-7.26086726E-06-1.42564380E-04
 5 18 8.52525743E-06 1.70110368E-04 3.51335819E-04-7.60676382E-06-1.20699916E-05
 5 19-2.77932249E-06 8.01817316E-06-4.61041733E-06 1.94372765E-05-1.90929846E-04
 5 20 2.01326485E-03-8.66318933E-05-8.95278627E-05-1.85403220E-04 1.75058233E-03
 5 21-2.57440672E-05 6.42109749E-05 1.26001536E-04-5.09406290E-05 6.66471973E-06
 5 22-2.80472591E-05-3.26058224E-07 4.23801798E-04-1.30670425E-05 1.32738160E-04
 5 23 1.95973608E-04-1.86859971E-05-2.38899653E-05-9.53696319E-06-3.03161280E-06
 5 24 6.50095571E-06-3.44058500E-06-1.00036627E-04-5.69139872E-05-2.21678170E-05
 5 25-2.91493941E-05-3.25643413E-05-2.93685858E-06 2.04434004E-06 5.29126498E-05
 6  1-6.75378067E-05 1.18538334E-05 1.11092118E-06-9.28988172E-05-1.31573231E-05
 6  2 2.91036934E-05 1.20313965E-05 2.23978684E-04 3.71352479E-06-1.33924517E-04
 6  3-3.68231599E-04-2.74498634E-05 7.96153839E-05 5.89986667E-05-5.79952473E-05
 6  4 2.16171835E-05-9.38158298E-07 2.48546857E-05 8.46202936E-05 1.19582458E-03
 6  5-8.46448934E-06 1.15425442E-05-4.23109783E-05-2.43681337E-05 3.59711317E-04
 6  6 1.77216050E-04-1.43495390E-04 5.65765280E-04-1.66464516E-05 7.77575642E-06
 6  7-1.89923247E-05-2.20717506E-05 1.18370504E-05-2.85746191E-05-6.92419018E-03
 6  8-1.92208186E-04-2.12257268E-05 6.25382657E-05-1.82506171E-05-2.10410467E-03
 6  9-4.00052367E-04 4.24587872E-04-9.48538689E-04 6.79428973E-05 3.40470072E-05
 6 10 1.26343710E-04 1.35546606E-05 5.89876963E-06 2.05026468E-05-2.59898616E-02
 6 11-1.63570277E-03-1.31562178E-04 2.98282599E-04-5.53993435E-05 7.41333725E-03
 6 12 7.32388260E-04-2.84077332E-03-1.24127865E-03-3.08424692E-05-1.44067571E-04
 6 13-1.72359443E-04 9.01207887E-05-6.00119981E-05 5.67201408E-05 9.93522434E-01
 6 14 4.15977410E-02-1.24030059E-04-2.39302921E-04-3.66833226E-04-1.73393700E-02
 6 15 8.46969777E-04 2.04581009E-04 3.22300316E-03-6.70464348E-03-6.17529653E-03
 6 16-6.40474833E-03-2.51138147E-04-2.95441490E-05 5.09642652E-05-2.99542662E-03
 6 17-3.93945014E-04 5.10884996E-05-2.42953692E-04-1.98026066E-04 6.00527377E-03
 6 18-9.80446733E-04 2.87441765E-03 9.45707894E-04-1.87354065E-04-4.89050317E-04
 6 19-4.45303792E-04 7.88516227E-05 1.89537088E-05-2.32283987E-04 3.50516224E-05
 6 20 1.95635701E-04 9.69089138E-05 4.68959853E-04-6.29932860E-05-1.51708345E-04
 6 21-3.01576856E-04 1.44516585E-03 5.33693035E-04-5.42330967E-05 9.79799228E-06
 6 22-6.33079117E-05-7.86203000E-05-5.82600017E-04 1.21480362E-04-2.13216057E-04
 6 23-4.93813232E-05-3.78705251E-05 2.97825727E-05 5.73395828E-05-3.46399227E-05
 6 24 3.81217963E-05-3.92638604E-05 2.63967190E-05-4.49645602E-05-2.85992022E-05
 6 25 1.27069749E-04 2.37639458E-06 1.72098399E-04 9.33109900E-06 7.72127287E-05
 7  1-2.70626641E-05-3.68570984E-05-7.98186934E-06-3.22184810E-05-4.62353837E-06
 7  2 7.11747071E-06 5.71780105E-06 2.89444437E-04-2.70751924E-05-8.53387499E-06
 7  3-2.08432218E-04-1.95033784E-05-1.42680907E-05-4.02078905E-06-9.12394770E-06
 7  4 4.95396530E-06-1.54528996E-05 1.62975205E-05 2.64417468E-05-1.06875826E-01
 7  5-4.78899358E-03-1.16351347E-04 2.89856452E-04 6.86903773E-07 6.84619384E-03
 7  6 8.05371461E-04-2.08068026E-03 7.26039752E-04 5.91337436E-04 3.61406766E-04
 7  7 4.74090662E-04 9.77646704E-05-3.91249281E-05-6.68477807E-05 9.88161027E-01
 7  8 4.05483533E-02-3.37068653E-05 2.30615338E-04 4.41617122E-04-1.61210345E-02
 7  9 2.41513049E-04-1.49167131E-03-2.01536601E-03-6.41380884E-03-5.99359597E-03
 7 10-6.25444219E-03-2.12728455E-04 1.59977081E-04-1.75124663E-04-1.40625982E-02
 7 11-7.64559691E-04 9.34600262E-05-5.49255168E-05 2.62162149E-04 5.23002758E-03
 7 12-9.66440371E-04 1.08559684E-03-2.00692186E-03-9.34908468E-05-1.67937733E-04
 7 13-4.84898126E-04 7.02552067E-05-1.61652874E-04 1.31613164E-04 6.70201478E-03
 7 14 3.07239083E-04 2.21064046E-07-1.02338223E-07 3.26944377E-05-8.62925686E-04
 7 15-5.35387599E-05 5.54630545E-04 4.89818444E-04-3.51209287E-05 5.56245188E-05
 7 16-2.90329618E-05-4.04831729E-05 1.41056384E-06 5.91363979E-06-8.72247187E-06
 7 17 1.25117737E-05 1.11420042E-05-2.41115061E-05-1.33757334E-05 2.71696809E-04
 7 18-1.41297699E-04 6.63254902E-04 5.49580296E-04-9.78502371E-06-2.79978863E-05
 7 19-3.37695569E-05 8.47117850E-06-1.90401764E-05 1.10974693E-05-2.44312506E-05
 7 20-1.56667396E-04-4.86452031E-05-4.26154216E-04-1.12568746E-04-4.74237919E-04
 7 21 3.79381359E-06 4.70312036E-05 1.26473463E-04-3.89083544E-05 2.90268412E-05
 7 22-1.97921210E-05-2.47078595E-05 4.40468270E-04-1.44886999E-04-1.05033189E-04
 7 23 3.24199411E-04-5.06402910E-06-3.38993320E-05 1.87152456E-05-7.68798460E-07
 7 24 1.80747986E-05-1.01422529E-05-1.12162566E-04 1.48788831E-03-8.34922678E-05
 7 25 2.98926338E-04-1.09701502E-05-3.16216526E-04-1.15026672E-05 4.36143790E-05
 8  1 7.43989243E-02-7.91731345E-04-1.79668849E-01 3.71012849E-01-2.89792948E-02
 8  2 8.26668959E-02-3.80773591E-02 4.16967663E-01-1.25744649E-02 4.29620011E-02
 8  3-1.55311508E-02-1.04222188E-02 8.55836514E-03 5.41148772E-03-1.23129986E-02
 8  4 5.80010033E-03-4.28159712E-04 8.11114102E-02-5.66057364E-03-6.95554733E-04
 8  5 1.27606853E-03 2.26993348E-04-5.93116419E-04 7.51476230E-05-1.36409344E-03
 8  6-2.81373679E-04-1.82471347E-04-2.04552970E-04-1.26389180E-04-2.95809742E-05
 8  7-1.21795674E-06 4.68409108E-06 1.59907447E-05 2.22542359E-05-2.72488454E-03
 8  8 4.73989031E-03 1.17554940E-03-2.13276832E-03 2.51217813E-03 1.10852398E-02
 8  9 2.25732341E-03 9.75525905E-04 6.41730694E-03-1.51984405E-04 3.74014748E-04
 8 10 4.58259364E-04-3.66007718E-04 3.55495554E-04-4.01538939E-04-9.52592812E-03
 8 11 1.96793957E-02 4.23728113E-03-1.09077954E-02 6.50534416E-04 3.36865346E-02
 8 12 7.57525788E-03-1.00083376E-02 1.62655327E-02-2.65500524E-04 1.51992238E-03
 8 13-4.62327050E-04-8.67218720E-04 6.05947665E-05 5.50775912E-05-3.61203808E-02
 8 14 6.96624366E-02 9.56309631E-03-3.62821951E-02-1.53473433E-02 2.05918809E-02
 8 15 1.54266286E-02-3.46610082E-02 1.56252151E-02-2.89240078E-03 5.76456548E-03
 8 16 4.33248914E-04-3.23237272E-03-1.09088909E-03 3.83520684E-03-1.23938108E-01
 8 17 2.52779892E-01 5.61373231E-02-1.05985218E-01 6.70095782E-02 5.31329081E-02
 8 18-2.39200376E-02 3.96760500E-02-4.15928530E-02-1.08776375E-02 5.31556335E-03
 8 19-3.81046981E-03-1.14348687E-02 6.27275606E-03-8.71532194E-03 2.23573092E-04
 8 20 3.87930774E-04 2.80042381E-03-6.70053300E-03 1.07948186E-04 1.11034633E-03
 8 21 1.56517720E-02-5.23006844E-03-2.97908642E-02 5.58835784E-02 6.28401324E-03
 8 22-3.20830746E-03 3.67165628E-02 2.03027746E-02 5.16293890E-03-1.27945111E-02
 8 23-3.99635834E-03-1.20938974E-03-1.22023331E-03 6.96874814E-03-4.73186766E-04
 8 24 2.34068990E-03-1.02085201E-03 1.02544719E-03 4.47409075E-03 9.45852309E-03
 8 25-7.58663149E-05 1.29669195E-02-5.94967311E-04 1.05820889E-02-3.08854958E-03
 9  1-3.54934151E-02-1.47079607E-03 4.88634929E-02-1.04102032E-01-1.11064797E-02
 9  2 1.59960203E-02-1.02280119E-03-1.22165388E-01-7.48348019E-03 7.53949082E-03
 9  3-3.99998049E-03 2.38833500E-03-4.63071649E-04-3.08918130E-03 2.01591677E-03
 9  4-8.24441777E-04-2.42017953E-03-2.99808884E-02 1.43657923E-03-5.97848743E-02
 9  5 1.14996068E-01 2.14259406E-02-5.65213814E-02 1.28614411E-02 8.74312649E-02
 9  6 4.55342010E-03-7.96738631E-03 6.69470738E-03-4.79811712E-03 5.25843504E-03
 9  7-1.29105784E-03-4.65687423E-03 1.70651806E-03-1.41987555E-03-1.00948103E-01
 9  8 1.95201272E-01 8.45026176E-03 1.49357568E-02 6.16786338E-02 1.09027690E-01
 9  9 1.84816627E-03-1.17581713E-02 3.03270812E-04-7.32548136E-03 1.43896665E-03
 9 10 5.16008889E-03-4.12752214E-03 6.40264971E-03-2.53963387E-03-1.44835331E-01
 9 11 2.85544400E-01 5.80545825E-03-1.44465435E-02-2.46155004E-03 1.73178857E-01
 9 12-6.04159656E-03 1.25099661E-02-1.15392187E-02-1.14334844E-02 6.00137421E-03
 9 13 2.52313845E-03-9.04571263E-03 5.23297066E-03-8.94882855E-04-1.12779598E-01
 9 14 2.17045229E-01-3.07479473E-02 4.87516008E-02-3.42727225E-02 1.50028733E-01
 9 15-1.05105100E-02 2.24355391E-02 5.42962698E-03-8.12593784E-03 4.34145653E-03
 9 16 2.25943912E-03-7.10809117E-03 2.07850680E-03-1.77228598E-03-3.61468915E-02
 9 17 7.25051974E-02-3.69360748E-02 9.17680393E-02-5.23012139E-03 6.74676748E-02
 9 18-3.85130339E-03 1.89400652E-02 1.05138124E-02-3.81355806E-03 1.23922374E-03
 9 19 2.78688056E-03-2.29925167E-04-1.82080737E-03 8.35557758E-03 2.14419325E-02
 9 20 2.57437626E-03 9.58961347E-02 1.05949899E-02 2.33321993E-02 1.09122663E-03
 9 21 5.69625723E-02 3.65512865E-04-2.67817084E-02 4.92506809E-02-6.73339723E-03
 9 22 1.43928339E-02 1.55325127E-02 4.92849547E-02-1.49393716E-03 5.98048728E-03
 9 23 3.72276295E-03 3.78658677E-05-3.54706723E-04 1.30894857E-03-1.50047286E-04
 9 24 1.71247045E-04 1.32535887E-03 3.48022642E-02 2.11785527E-03 1.48143142E-02
 9 25 2.10388896E-04 2.03827661E-02 1.41533826E-03 7.50417599E-03-3.50718988E-04
10  1 6.06740226E-02 4.71313117E-03-6.88760656E-02 1.49291305E-01 3.71961202E-02
10  2-5.39617248E-02 3.65327713E-02 1.74583138E-01 2.13607679E-02-2.94423571E-02
10  3 1.85866827E-02-3.08754850E-03 2.08409258E-04 5.40315614E-03-2.17559009E-03
10  4 4.68489955E-04 6.50050332E-03 5.99626710E-02 5.21085665E-03-9.77351404E-02
10  5 1.90278260E-01 2.70446386E-02-7.62649146E-02 8.79480930E-03 1.48109171E-01
10  6 5.42629710E-03-5.90774044E-03 1.05252389E-02-7.67229015E-03 6.93239032E-03
10  7-6.70162621E-04-6.50333374E-03 2.57627770E-03-9.75840265E-04-1.04518378E-01
10  8 2.05112577E-01-2.18676823E-02 7.64565455E-02 2.34240107E-02 1.22183699E-01
10  9-8.31085086E-03-2.09416823E-03-1.75406525E-02-7.43184217E-03 3.91604606E-03
10 10-1.39803621E-03-3.71988217E-03 3.21869308E-03 1.38264292E-03-2.19834589E-02
10 11 4.37049345E-02-4.56655155E-02 9.27157793E-02-5.11678259E-02 3.25711333E-02
10 12-1.73367897E-02 3.76330416E-02-2.17439082E-02-2.25778113E-03-2.67531907E-03
10 13 6.67039229E-03-7.96621492E-05 2.85548160E-03-9.28606257E-04 7.74399099E-02
10 14-1.51407973E-01-5.09794765E-03 4.04496401E-02 3.00722267E-02-8.88480543E-02
10 15-5.96775237E-03 1.91423201E-02-1.74393211E-04 6.64351562E-03-8.82913493E-04
10 16-3.47682636E-03 2.31897052E-03 4.55111026E-04-4.92309514E-03 8.06636559E-02
10 17-1.67824578E-01 4.66992356E-02-9.13743648E-02 5.41861024E-02-1.14833696E-01
10 18 1.04136750E-02-2.10751332E-02 1.61420345E-02 7.92281038E-03 3.22845498E-03
10 19-7.64204944E-03-4.85091468E-04 6.51543527E-04-1.03002762E-02 4.41299619E-02
10 20 7.80311848E-03 3.14612335E-02 4.10493628E-03 4.15573033E-02 1.43945808E-03
10 21-4.26891657E-02-2.52042453E-03 9.22724858E-02-1.74384531E-01 1.51663726E-02
10 22-1.91957205E-02-4.00353044E-02-1.61242236E-01 4.17573168E-03-7.40901928E-03
10 23-4.50882647E-03-1.21002708E-03 1.28892209E-03-3.62419968E-03 5.61773327E-04
10 24-1.59566203E-03-1.95230054E-03 3.53325879E-02-6.08654373E-03-4.49072344E-02
10 25-5.39852713E-03-6.71415774E-02-1.96982024E-03-3.96378335E-02-4.40822590E-03
11  1-8.66211136E-03-7.02521571E-04 2.42573725E-02-5.23169794E-02-1.92362988E-02
11  2 3.28142053E-03-7.09048900E-02-7.09013890E-02-8.81585141E-03-8.55392959E-04
11  3-3.52694913E-02 1.31369964E-03-1.54568303E-03-7.67622957E-04 7.51622834E-04
11  4 2.41100249E-04-4.75102692E-03-4.60118771E-02-5.84060013E-03-7.80752070E-02
11  5 1.52954541E-01 1.70500968E-02-5.30718463E-02-2.20527798E-03 1.35432661E-01
11  6 3.63783510E-03-7.35786502E-03 2.68650155E-03-6.10729598E-03 5.08387725E-03
11  7 5.42307810E-05-4.64410988E-03 1.80112905E-03 1.10720381E-04-6.38320370E-02
11  8 1.27073699E-01-3.08814428E-02 6.93336910E-02-2.26113181E-02 6.92798526E-02
11  9-2.62757588E-03-9.74552059E-03-1.62605713E-02-4.23968328E-03 4.68306651E-03
11 10-5.13782763E-03-2.27185365E-03 1.00814453E-04 2.89719882E-03 5.71836727E-02
11 11-1.13719720E-01-4.15325303E-02 6.56497153E-02-7.45562410E-02-1.00057678E-01
11 12-1.86488239E-02 3.74749911E-02-2.40181713E-02 4.64177437E-03-3.75251771E-03
11 13 4.04491505E-03 3.53462840E-03 7.00800199E-06-1.57895567E-03 9.13718647E-02
11 14-1.78696745E-01 1.92734311E-02-4.63114719E-02-2.72399009E-02-1.14994460E-01
11 15-8.13408596E-03 1.92435751E-02-1.43838509E-02 6.45433913E-03-2.38306200E-03
11 16-1.46056989E-03 5.37103393E-03-1.37104091E-03 3.16654432E-03-3.51839852E-02
11 17 7.37799194E-02-1.12367502E-02-5.12132164E-02-1.54586941E-01 5.67725011E-02
11 18-1.60309271E-03-7.42835193E-03-1.71164352E-02-3.18811768E-03-6.73828873E-03
11 19 8.87316018E-03 1.66953298E-03 3.00161480E-03-3.23245548E-04 4.07420697E-02
11 20 6.12529732E-03-4.23408418E-02-1.15531713E-02 3.42354827E-02 2.60171839E-03
11 21-7.35359917E-02-1.54893034E-02-1.38249706E-01 2.62604750E-01-2.48801389E-02
11 22 8.57139027E-03 2.72936220E-02 2.61810671E-01-1.18041679E-03 5.10090556E-03
11 23 7.33171014E-03 3.29560092E-03 2.99846506E-04 1.20929035E-03-2.00082654E-03
11 24 2.69125923E-03 2.86992891E-04 3.28932965E-02 8.32703211E-03 7.00655406E-02
11 25 1.09576117E-02 1.08489229E-01 1.63116152E-02 7.30830666E-02 1.44579838E-02
12  1 1.06837766E-01 2.26462768E-02-4.18459501E-02 9.19800434E-02 8.11889803E-02
12  2-1.77472402E-01-9.76904829E-04 1.28257533E-01 4.23593456E-02-9.28633017E-02
12  3-1.26788856E-02-1.13475667E-03-2.18574355E-03 7.86482331E-03-1.17961316E-03
12  4-7.40507394E-04 7.06397360E-03 3.48112753E-02 1.04544068E-02 8.90213899E-02
12  5-1.77723676E-01-3.85229446E-03 2.50024398E-02 2.36430922E-02-1.52813031E-01
12  6 1.76750348E-03-6.90989074E-03 2.68970089E-03 6.95544452E-03-2.85580666E-03
12  7-2.47780205E-03 3.68917375E-03-2.01425148E-03-1.58021555E-03 1.70696956E-02
12  8-3.57612352E-02 5.43703043E-02-1.02176887E-01 8.11244023E-02-1.76054666E-02
12  9 1.70154136E-02-1.88075569E-02 3.18797845E-02 6.48337656E-04-7.78049658E-03
12 10 1.09380079E-02 2.03810852E-03 3.53702997E-03-3.17962243E-03-1.01778672E-01
12 11 2.09942895E-01-6.31655176E-03 4.68778085E-02 3.73537961E-02 1.44977206E-01
12 12-7.72833284E-05 6.62296373E-03 1.67752870E-02-9.06557693E-03-7.03585417E-04
12 13 1.69043952E-03-1.82758562E-03 5.70735029E-04 7.79404521E-03 4.54649971E-02
12 14-9.18489618E-02-5.99158663E-02 1.74061434E-01 6.86665605E-03-8.77549487E-02
12 15-1.57691177E-02 4.63879241E-02-1.03888682E-02 4.98080456E-03 5.11039333E-04
12 16-4.00042296E-03-8.25690316E-04 2.25678645E-03-8.29135450E-03 8.01125004E-02
12 17-1.74194245E-01-4.79996987E-05-7.25593122E-02-1.46008629E-01-1.29639058E-01
12 18 2.45683142E-03-1.76539288E-02-4.61971503E-03 7.70904926E-03-1.16809941E-05
12 19 2.85943593E-03 2.40230991E-03 5.73792762E-04-3.43877295E-03-6.52246570E-02
12 20-1.64012121E-02 1.11099051E-01 2.88341569E-02-4.62832167E-02-7.12497340E-03
12 21-3.85438526E-02-4.29156172E-03-7.03635240E-02 1.33664887E-01-2.48333018E-02
12 22-7.77407300E-03-3.97252560E-02 1.61568609E-01-3.61725281E-04-1.15159816E-03
12 23 7.30184731E-04 4.04245878E-03 2.66868830E-03-5.86733249E-03-2.03940471E-03
12 24 1.00076566E-03-1.25419443E-03-1.12241082E-02 4.19867655E-03 4.15075458E-02
12 25 1.19293717E-02 7.01734961E-02 1.89479625E-02 5.33938799E-02 2.06485531E-02
13  1-9.22976089E-02-3.51394587E-02 2.29679794E-02-4.88588385E-02-1.48325282E-01
13  2 2.24213245E-01-2.06487686E-01-9.49801368E-02-7.28506524E-02 1.01550102E-01
13  3-1.03903121E-01 5.70266561E-04 2.79251749E-04-1.16141961E-02 1.40401421E-04
13  4 2.01138616E-04-1.42110126E-02-1.27977817E-01-4.56050249E-02 6.67096116E-02
13  5-1.34001597E-01 1.55492915E-02-2.60978741E-02 3.93119926E-02-1.38452557E-01
13  6 6.58006751E-03-1.11257605E-02 1.52482279E-02 5.49621722E-03 1.02436162E-04
13  7-4.70889776E-03 1.44728761E-03-1.71924136E-03-2.43081535E-03-2.47950083E-02
13  8 4.92617545E-02 4.66484954E-02-7.04204649E-02 9.64983467E-02 4.76410565E-02
13  9 7.14136854E-03-1.22153111E-02 1.82892251E-02-2.17490861E-03-6.75754206E-03
13 10 8.69181936E-03 1.35577763E-03 3.72057088E-03-1.19896036E-03-4.98504889E-02
13 11 1.06992954E-01-5.96371717E-02 1.34808907E-01-5.51611128E-02 7.66767835E-02
13 12-1.86734941E-02 4.34942090E-02-1.71497627E-02-4.78954279E-03-3.07359668E-03
13 13 4.75994234E-03 1.14401178E-03 5.37999688E-05 7.38132731E-03 7.43545761E-02
13 14-1.48605745E-01 4.23121468E-03-7.66323621E-03-5.08294620E-02-1.37103392E-01
13 15-1.04508400E-02 2.40145508E-02-1.67090737E-02 6.12004433E-03 7.44181830E-03
13 16-7.61964038E-03-3.14311516E-04-1.11563156E-03 9.57543977E-04-6.74748870E-02
13 17 1.52319903E-01 7.54771473E-02-1.87999425E-01 1.45940633E-02 1.14787431E-01
13 18 1.10292371E-02-2.06838200E-02-3.36007266E-03-6.45016129E-03 2.52009658E-03
13 19-9.44238386E-03-6.11599773E-03 2.67297049E-03-9.94154008E-03-7.06632684E-02
13 20-2.22056178E-02 7.74642329E-02 2.37132430E-02-4.48492061E-02-1.52585886E-02
13 21-8.88240381E-02-3.71448280E-02 4.67534637E-02-8.83539961E-02 5.59357162E-02
13 22-3.12205380E-02 8.61306126E-02-1.13780782E-01 1.46971577E-02-1.59093948E-02
13 23 1.97797408E-02-6.59529163E-03-2.87395991E-03 9.40769808E-03 9.75849880E-04
13 24 9.09478372E-04-1.39665286E-03-1.51432288E-03-8.46527177E-03-4.30930301E-02
13 25-1.64193146E-02-7.95439401E-02-2.59654358E-02-3.23057708E-02-1.63800093E-02
14  1 3.94989766E-02 1.00961246E-02 2.50159041E-03-4.85110820E-03-4.58574842E-02
14  2-1.02737978E-02-2.15419936E-01-1.60083546E-02-2.30539810E-02-2.18657097E-02
14  3-1.33902169E-01 4.04424343E-04 1.34868170E-03-6.44838738E-03-2.17349893E-03
14  4-2.96698358E-03-4.35872440E-03-1.12227754E-01-3.57974084E-02-8.34967035E-02
14  5 1.67632094E-01-3.09870325E-02 1.08799571E-01-7.62995886E-03 1.71053855E-01
14  6-1.31407376E-02 4.13100625E-02-2.98894239E-03-7.00902907E-03-3.63357134E-03
14  7 1.07235397E-02-8.55644292E-04 3.63301455E-03 2.97130519E-03 8.86783415E-02
14  8-1.78326550E-01-3.16861758E-02 1.25998063E-01-1.83195898E-02-1.86787446E-01
14  9-1.01779100E-02 5.86827004E-02 5.24227758E-03 5.63537610E-03 3.79213702E-03
14 10-4.35627829E-03-1.29685434E-03-5.53574454E-03-1.75748793E-03-1.73471268E-02
14 11 3.56984774E-02 5.47525251E-02 6.16600715E-03 2.28869153E-01 1.65376594E-02
14 12 8.70462564E-03 5.61932206E-03 4.65808084E-02-2.81650519E-03 5.19281534E-03
14 13-5.05831070E-03-1.29129730E-03-3.04691609E-03 6.44830799E-03-1.55529780E-02
14 14 3.27107931E-02-3.11688980E-02 1.26282490E-01 1.10925033E-01 7.52100058E-03
14 15-1.49719724E-02 5.97042484E-02 5.34183162E-02-7.40303832E-04 1.05534883E-03
14 16 1.18020430E-03-1.57797232E-03-5.61998025E-04-2.55544377E-03 2.22628934E-03
14 17-5.22342593E-03 4.47452333E-02-1.54407629E-01-7.03738839E-02 1.17136561E-02
14 18 5.06881388E-03-4.45742412E-03 6.56163719E-03-8.25946089E-04 4.91295807E-03
14 19-4.57725547E-03-2.73883023E-03-1.61616479E-03 2.61709587E-04 9.28690965E-02
14 20 3.60874429E-02 9.80022612E-02 5.50166151E-02 9.76161663E-02 4.27936749E-02
14 21 6.13807427E-02 1.79785199E-02-1.18502255E-03 4.42018912E-03 4.30988000E-02
14 22-6.07420238E-02 3.45955512E-02 1.23061093E-02 2.04720134E-02-4.27458250E-02
14 23 1.20234081E-02-3.57421947E-03 3.27459301E-04 3.60861422E-03-6.30257849E-04
14 24 9.10022883E-04-1.19100938E-03-9.40135002E-02-3.91873063E-02-1.91078612E-02
14 25-8.70539173E-03-3.40180852E-02-1.81610566E-02 2.48017504E-02 6.75264800E-03
15  1-1.80214643E-01-6.88345377E-02 1.32005818E-03-1.70521686E-03-6.77767923E-02
15  2 2.55443245E-01 2.47200779E-01-1.63944972E-02-3.78891443E-02 1.53652212E-01
15  3 1.64653805E-01-1.59361234E-03-8.76499416E-03 6.51806978E-03 6.42139188E-03
15  4 7.83832328E-03-4.22227571E-03 1.27410706E-01 4.68894368E-02-6.05460987E-03
15  5 9.92839738E-03 1.42894444E-03 2.72604693E-02 3.85929282E-02 9.34436173E-03
15  6 1.49157123E-03 7.43523691E-03 1.93978764E-02-9.77041722E-04-9.04509435E-04
15  7 1.74777010E-03-8.03368990E-05 7.67539955E-04 3.90570728E-04 2.86091262E-02
15  8-5.73209536E-02 5.16941373E-03 4.45210144E-02 5.46024481E-02-6.35108376E-02
15  9 3.21047992E-03 2.82224632E-02 2.77231388E-02 9.07805907E-04-2.81286608E-03
15 10 2.89485906E-03 8.64773048E-04-1.79694834E-03 9.65654481E-04-1.68856998E-02
15 11 3.61972349E-02-3.88766447E-02 1.73464915E-01 1.01784301E-01 4.39184705E-02
15 12-5.51123206E-03 3.37951114E-02 3.70941082E-02-3.67466511E-03 1.47377437E-03
15 13 3.43405598E-03 1.14823088E-03-1.55193909E-03 9.03730203E-03 3.07407667E-02
15 14-6.19923309E-02 2.95795853E-02-3.12691339E-02 1.22564424E-01-6.07476416E-02
15 15 1.72568768E-02-2.64235311E-02 3.83468700E-02 1.24645556E-03 3.83598526E-03
15 16 5.45349354E-04-3.05842717E-05-1.50773019E-03 7.97792938E-04 2.32861640E-02
15 17-4.99757684E-02 4.15088315E-02-7.56265563E-02 1.38974169E-01-8.06130655E-02
15 18 1.08839802E-02-3.22046705E-02 1.99117847E-02 6.62353993E-04-1.02094976E-02
15 19 1.07872211E-02 2.61572836E-03 8.18118747E-03-1.28740245E-02-5.84069593E-03
15 20 7.88501676E-04 1.22967805E-01 6.27891891E-02 2.76066886E-02 1.49060694E-02
15 21 3.99522910E-02 3.00230550E-02-4.55216663E-02 8.70254643E-02-7.01162286E-02
15 22-6.28121849E-03-1.34377708E-01 1.15979138E-01-2.26560088E-02-6.98661493E-03
15 23-5.09093625E-02 8.83230122E-03 3.14498373E-03-9.79565795E-03-2.10071079E-03
15 24 6.02997811E-04-1.68927469E-03-4.86275552E-02-1.33127092E-02 3.80855552E-02
15 25 1.56819497E-02 9.38530501E-02 3.47668974E-02 5.15242724E-02 1.43484431E-02
16  1-1.21808145E-02-6.50662319E-03-6.29979121E-03 1.53710126E-02-9.41975099E-02
16  2 7.51898269E-02-1.39633378E-01 1.33284570E-02-5.40680837E-02 3.57687784E-02
16  3-8.53782763E-02-7.53722397E-05-4.48019172E-04-7.14814712E-03-1.43737128E-03
16  4-1.57667171E-03-2.78604886E-03-7.56835553E-02-3.21118232E-02 3.28235540E-02
16  5-6.48419986E-02 1.96964964E-02-1.48696262E-01-8.20484181E-02-7.92240261E-02
16  6 5.02461477E-03-5.50973417E-02-4.30175721E-02 2.47992975E-03 3.48287520E-03
16  7-9.25754316E-03 1.95946570E-05-2.78714246E-03-2.03207739E-03-6.06516625E-02
16  8 1.19064385E-01-5.66776132E-02-2.41992308E-02-1.49358399E-01 1.66291453E-01
16  9-7.75565406E-03-3.98497727E-02-3.40988297E-02-3.61403521E-03 2.87680093E-03
16 10-2.25777280E-03 9.44554408E-04 2.10472632E-03 4.67955621E-03 2.85938898E-02
16 11-6.02979560E-02 2.35061963E-02-1.12030027E-01 1.61834322E-02-5.47051442E-02
16 12 1.87405253E-02-4.12912603E-02 4.48788134E-02 3.29170213E-03-4.47880251E-03
16 13 4.55181549E-03 1.34030811E-03 4.47209918E-03-1.12677625E-02-3.54375015E-02
16 14 7.15996776E-02-2.84310392E-02 9.25279812E-02 2.31635020E-01 7.45870228E-02
16 15 1.15372667E-03-9.22208499E-03 7.51860993E-02-2.44671678E-03-7.34692204E-03
16 16 1.04563310E-02 2.32745136E-05 3.36049445E-03-9.49320972E-03 4.71341219E-02
16 17-1.02156230E-01 6.11841608E-02-2.09026547E-01 8.57025753E-02-1.64890858E-01
16 18 1.09847412E-02-5.39735868E-02 2.19061010E-02 1.87313330E-03 5.87418894E-03
16 19-2.42111303E-03-2.82053526E-03 8.34607760E-04-4.96635570E-03-2.68614274E-02
16 20-1.73311937E-02-7.62260464E-02-5.62628564E-02-1.08324119E-01-5.56146656E-02
16 21 1.56704990E-01 8.63154005E-02-1.27451367E-02 2.37622787E-02-4.05639473E-02
16 22-7.45720075E-02-1.20435193E-01 4.09872358E-02-1.10348401E-02-3.65118035E-02
16 23-4.02869499E-02 4.61762795E-03 4.81857005E-03-8.57069555E-03-4.56782898E-03
16 24 6.77092424E-04-3.23776833E-03 1.18505176E-01 7.26393878E-02-6.91884953E-04
16 25 1.43699238E-03 4.90764307E-02 3.22101021E-02 6.40315220E-02 3.54076983E-02
17  1 1.08027299E-01 6.23786755E-02 1.63307080E-02-3.80051747E-02 7.50763928E-02
17  2-1.75274757E-01-7.01102054E-02-7.02186041E-02 4.22899129E-02-1.04170043E-01
17  3-5.36166183E-02 1.11678961E-03 8.42554412E-03-2.68218446E-03-4.14469370E-03
17  4-5.22149154E-03 6.18429117E-03-4.66729319E-02-1.15597766E-02 2.44081404E-02
17  5-4.99680916E-02 7.94271106E-02-1.72483529E-01 1.17106954E-01-9.35461726E-02
17  6 2.87384418E-02-5.32706472E-02 5.90479939E-02 2.02406617E-03 4.67284422E-03
17  7-1.24453604E-02-1.90930735E-03-2.88205865E-03-8.61201339E-04-2.49663389E-02
17  8 5.47346772E-02-2.40917036E-02 1.47030232E-01 7.20859161E-02 3.20218140E-02
17  9-1.31361262E-02 6.17245758E-02 1.93284941E-02-3.02854838E-03-1.96571966E-03
17 10-2.49469967E-03 3.23330274E-04-3.71546239E-03 6.02075204E-03 4.23240053E-02
17 11-9.13258889E-02-9.06461235E-02 2.66276288E-01 3.74889022E-02-8.31763987E-02
17 12-2.75576483E-02 7.83494876E-02 4.78543864E-03 4.35141483E-04 3.51893618E-03
17 13 7.19851325E-03 6.16875260E-04 1.44121661E-04 2.78092486E-03-1.66633977E-02
17 14 3.36058288E-02 1.10228316E-01-2.39590981E-01 1.77578763E-01 4.84413314E-02
17 15 3.40100120E-02-6.71756375E-02 7.45007516E-02-4.73022014E-03-5.72385680E-03
17 16 1.41638137E-02 4.61410344E-03-4.06489022E-03 1.03574190E-02-1.66992131E-02
17 17 3.65125958E-02-4.44541118E-02 1.42832134E-01-9.77981621E-03 6.95142386E-02
17 18 6.94886375E-04 2.86593161E-02 3.37636402E-02-1.28480230E-03-4.44458463E-03
17 19 5.13632465E-03 4.76599151E-03-6.17221070E-03 1.72361633E-02-1.24279293E-01
17 20-6.54449513E-02 8.77500406E-02 6.09920114E-02-3.87692343E-02-2.64869955E-02
17 21 1.34031041E-01 7.90536947E-02-3.08410635E-03 5.50523422E-03 3.64749014E-02
17 22-1.51905081E-02 2.72584490E-02 2.73227093E-02 1.80941011E-02-8.84100021E-03
17 23 1.85619266E-02-2.85063157E-03 4.30267732E-04 2.47697068E-03 1.15814674E-03
17 24-9.90224981E-04 3.12504720E-03-5.02486776E-02-3.93185985E-02-3.19830976E-03
17 25-3.89078928E-03-2.77364551E-02-1.89314084E-02 1.36300133E-02 1.19604279E-02
18  1-4.82148457E-02-2.61256035E-02 8.66701316E-03-2.15677956E-02 2.20016906E-01
18  2 1.33369875E-01 5.46856271E-02-2.88954139E-02 1.41700587E-01 9.00131661E-02
18  3 3.22332734E-02-7.07124903E-03-6.53803978E-04 8.72825558E-03 1.10963386E-02
18  4-1.42498146E-04-6.20521560E-03 6.67898229E-02 4.04790968E-02 5.47964094E-03
18  5-9.28174550E-03 1.86077176E-02-8.22056084E-02-6.38195020E-02-2.84007519E-02
18  6 3.15624004E-03-2.71146629E-02-3.07334788E-02 1.12204518E-03 1.19860645E-04
18  7-3.86826706E-03-1.02076974E-03-5.04488067E-04-2.19312359E-03-1.01433143E-02
18  8 1.88016601E-02-1.89461567E-02 4.77329639E-02-7.89166495E-02 3.06065411E-02
18  9-1.24448220E-03 1.47967769E-02-3.23333702E-02 3.87712835E-04 1.73076371E-03
18 10-2.54514787E-03-7.71205111E-04 1.06908548E-03 1.41304877E-03 1.28116104E-03
18 11-3.64507930E-03 6.98963380E-02-7.77114255E-03 6.27869086E-02-4.56795750E-03
18 12 2.81478135E-02 5.13996894E-03 2.11750956E-02 2.03985647E-03-1.55151263E-03
18 13-1.99863818E-04-2.67848355E-03-2.46423965E-05 1.27201850E-03 2.88955842E-03
18 14-5.66015268E-03 6.95133819E-02 9.79832890E-02 9.76734675E-03-1.10599302E-02
18 15 4.12194749E-02 4.40767414E-02-3.72228940E-04 1.07235019E-03-3.00456134E-03
18 16 1.82855755E-03-3.89789485E-03-4.32929551E-03-1.65760817E-03-4.46016046E-04
18 17-6.19908801E-04 2.15899057E-01 4.86895462E-02-1.29141171E-01 2.72780060E-03
18 18 1.01282896E-01 2.75966798E-02-4.45132690E-02 4.52665121E-03-1.05613495E-02
18 19 5.51858705E-03-3.41879800E-03 7.21198321E-04 6.66881747E-04 4.15608207E-03
18 20 4.36269868E-04 1.41189267E-02 3.45441021E-03-6.09356523E-02-3.87237639E-02
18 21 4.39160998E-03 8.29431343E-03-1.28175694E-02 1.91870734E-02 3.18099790E-01
18 22 3.08429231E-02 3.06781724E-02 6.33002418E-02 1.52349289E-01 1.83967604E-02
18 23 6.47725733E-03-1.46855319E-02 1.10942868E-02 4.76691311E-03 1.12044037E-02
18 24-5.14697512E-04 7.59749894E-04 2.05901954E-02 6.07086296E-03 1.16241585E-01
18 25 8.38774057E-02-1.68989431E-01-1.05227256E-01 3.81863587E-02 2.26828052E-02
19  1-3.86757479E-02-3.16652998E-02 1.18544662E-03-1.82819762E-03-6.42557453E-02
19  2-4.03838957E-02 1.29623821E-01-6.47232649E-03-4.18694212E-02-2.83450378E-02
19  3 8.91840333E-02 2.91630893E-03-8.57136418E-03 8.83037123E-03-1.64727571E-04
19  4 6.59643612E-03-1.33878144E-03 6.79434865E-02 4.16226761E-02 8.16921101E-03
19  5-1.44339802E-02 7.84039880E-03-1.65569443E-01-1.58391327E-01-3.92690827E-02
19  6-1.15575459E-03-6.45143527E-02-7.86431903E-02 4.47319189E-04-1.40652445E-05
19  7-5.92090624E-03-4.66877424E-04-3.81891471E-04-5.68880642E-03 1.46496536E-03
19  8-6.76350961E-03-1.02029657E-01 1.03803611E-01-1.81778666E-01-9.67381574E-03
19  9-3.39400682E-02 2.43000991E-02-5.74249439E-02-2.40736399E-04 3.59686628E-03
19 10-1.03960076E-03 4.76843999E-04-7.21881309E-04 3.84507596E-03-8.89141878E-04
19 11 1.91301566E-03 1.97499562E-02 5.65096097E-02 2.54963768E-01-2.36895194E-02
19 12-7.57485120E-04 3.05367748E-02 8.78994523E-02-3.18754105E-03 5.80141985E-03
19 13-1.34192800E-03 1.35750339E-03-4.16177871E-03 1.38643746E-02 2.53278755E-02
19 14-5.06499508E-02-5.35482072E-02 4.89145331E-02-1.21688343E-02-7.80685982E-02
19 15-3.56348746E-02 4.51940766E-02 4.03200360E-03 1.14112592E-03 5.09143894E-03
19 16-3.69332623E-03 1.67999568E-03-9.72059636E-04 6.83215347E-03-3.21642810E-02
19 17 6.87076377E-02-1.25751407E-01-1.61191018E-02-1.71620889E-01 1.43422325E-01
19 18-5.46969583E-02-5.31531660E-03-5.19128185E-02-4.05561014E-03-6.75262059E-03
19 19 7.78890809E-03 5.08728965E-03 2.77231025E-03-4.73215157E-03 3.07706103E-02
19 20 1.50929089E-02 1.28419168E-01 7.71432137E-02-1.32828837E-01-8.40818701E-02
19 21-3.73242729E-02-2.15065788E-02 8.65151881E-03-1.05819291E-02-8.86113055E-02
19 22 8.89801570E-02 2.17249899E-01-4.67847250E-02-5.26950621E-02 4.09069289E-02
19 23 8.63239102E-02-4.65649672E-05-1.46404610E-02 1.10297625E-02 1.28633988E-04
19 24 1.18272891E-03-2.21958464E-03 5.46271114E-02 4.41228539E-02-5.27459370E-02
19 25-4.17419002E-02 1.83436242E-02 6.66649850E-03-1.25666545E-01-9.36588910E-02
20  1 7.13376143E-02 3.47225383E-02-5.46424089E-03 1.58749511E-02 1.19672474E-01
20  2 2.32881990E-02-1.79346755E-01 3.27275278E-03 9.31793364E-02 1.33338611E-03
20  3-1.13901645E-01-1.88130665E-03 1.31929141E-02-1.17857884E-02-1.77587872E-04
20  4-8.77601886E-03 1.42535427E-03-9.23328127E-02-6.58781322E-02 9.66010121E-03
20  5-2.34954096E-02-7.38476117E-02 1.41328419E-01-1.19999686E-01-9.66507163E-03
20  6-2.69920617E-02 4.59788981E-02-4.79786584E-02-3.65305380E-04-4.05328143E-03
20  7 1.02378143E-02 2.12659331E-03 2.77745044E-03-1.28470720E-03 1.27006293E-02
20  8-3.21245234E-02 1.81395455E-02-1.55859949E-01-7.24477551E-02-3.93128870E-03
20  9 8.28708513E-03-4.98393202E-02-2.67997031E-02 6.41243316E-04-4.83617321E-03
20 10 1.08694127E-02 4.47436226E-03 3.90368902E-03 4.45813012E-03-2.10707925E-03
20 11 4.72319783E-03-2.55722704E-02 1.73004888E-01 5.89637007E-02 1.01296836E-02
20 12 1.34533631E-03 3.94273166E-02 2.42328817E-02-1.86162330E-03-3.15962774E-03
20 13 5.37604177E-03 2.92097897E-03-2.82756027E-03 1.61662458E-02 1.30341719E-02
20 14-2.63216321E-02 1.02282876E-01-1.07693881E-01 2.81872614E-02-5.64142588E-02
20 15 4.74496319E-02-2.67592728E-02 1.73278809E-02 5.36383468E-04 3.56682517E-03
20 16 8.48853055E-04-2.22298797E-03-4.54164831E-03 5.38337938E-03-1.69718606E-03
20 17 4.13032348E-03 1.19349847E-01 7.57430873E-02 1.24379802E-01 1.62931107E-02
20 18 5.93636122E-02 3.19937634E-02 6.61676634E-02 5.49446142E-03 1.10673259E-03
20 19-9.09018338E-03-6.49891508E-03 4.37717056E-03-2.35087746E-03 9.71030479E-02
20 20 7.24854722E-02 1.09830301E-01 8.43177840E-02-9.35836266E-04 4.95041253E-03
20 21 9.26371243E-03 2.81037823E-03 1.42025905E-02-3.11915366E-02-1.10017108E-01
20 22 2.44040357E-01-1.10056286E-01-3.63496174E-02-5.01202031E-02 1.55505052E-01
20 23-4.08737125E-02 1.38756264E-02-4.52000465E-03-9.03472996E-03 4.57365266E-03
20 24 4.46682728E-03-9.42007270E-03 9.38991933E-02 9.40219458E-02 9.13466478E-02
20 25 6.90961349E-02 1.06323998E-01 7.52336685E-02-1.35771582E-01-8.95723526E-02
21  1-3.16757423E-02-2.26572696E-02 1.03615902E-02-2.47114452E-02-5.90068890E-02
21  2-5.61871945E-02 1.06307721E-01-5.02281688E-02-4.73152474E-02-3.08166942E-02
21  3 7.31474743E-02 1.51976919E-03-9.14570861E-03 1.07872510E-02 2.05646400E-04
21  4 5.70176312E-03-1.64270411E-03 6.13855482E-02 5.84550220E-02 1.23614945E-02
21  5-3.03394538E-02-9.27560858E-02 2.23841818E-01 2.41378932E-03-9.30629817E-03
21  6-3.40656172E-02 8.34682592E-02 1.25973929E-02-1.22689139E-03-1.45625245E-03
21  7 1.19402554E-02 3.97568518E-03 1.74939682E-03 3.06112610E-03-1.23014941E-02
21  8 1.92492527E-02 4.09081594E-02-2.64583008E-01 3.63059045E-02 9.33286120E-02
21  9 4.13785130E-03-9.62822912E-02 7.05295083E-03-1.76266685E-03-7.02212740E-03
21 10 1.17172485E-02 4.75583322E-03 2.89129405E-03 3.09698171E-03 9.32258027E-03
21 11-1.98693207E-02-1.20193584E-01 7.30144599E-02-1.07534761E-01-4.91875508E-03
21 12-3.56356853E-02-7.50778496E-03-1.83701623E-02-1.45307812E-03-9.28308243E-03
21 13 1.20076132E-02 5.90702960E-03 4.06755512E-03-3.24076663E-03 1.47667788E-02
21 14-3.57433639E-02-2.23189017E-02-5.12179264E-02 2.64774709E-01-3.36085668E-02
21 15-9.81997709E-03-5.80744152E-02 8.95567646E-02-1.23528725E-03-1.22097268E-02
21 16 1.98231644E-02 4.92767402E-03 3.53303916E-03-2.11705577E-03-4.15543464E-03
21 17 1.04843246E-02-7.87189644E-02-8.15997585E-02-2.06720375E-01-1.06730333E-02
21 18-2.49752176E-02-6.53331018E-02-7.09311938E-02-4.09997072E-03-1.22597073E-02
21 19 1.72890759E-02 7.44752456E-03-4.43306587E-03 2.39233148E-04 5.56009555E-02
21 20 4.96743806E-02-1.72263672E-02-2.43525662E-03 8.15044915E-02 6.23228094E-02
21 21 1.66574359E-01 1.46381575E-01-5.64554896E-03 1.03063924E-02 1.29469801E-01
21 22 1.92997621E-02 1.98828116E-01 3.01952396E-02 5.63934238E-02 2.55167173E-02
21 23 9.82360467E-02-1.16394116E-02-3.06132272E-03 1.14788475E-02 4.22017644E-03
21 24-2.82857281E-03-1.27129215E-03 8.87037744E-02 6.56005244E-02 8.53768208E-03
21 25 6.92683720E-03-1.01475840E-01-6.45356527E-02-3.75735645E-02-2.59075981E-02
22  1-3.06930205E-02-4.15405701E-02-1.19460248E-02 3.00312906E-02 4.18479084E-02
22  2 8.69931353E-02-3.45543036E-02 4.65164638E-02 3.78481876E-02 4.96148175E-02
22  3-1.39142603E-02-1.44913257E-03-3.57004665E-03 2.17619115E-03 4.36485119E-03
22  4 1.16974343E-03-5.08861383E-03 6.18133506E-03 4.11806532E-03-1.09714712E-02
22  5 2.41462021E-02 8.26981552E-02-6.60885187E-02 2.52443489E-01 3.04589503E-02
22  6 3.64203207E-02-1.97968098E-02 1.22065848E-01-5.01972717E-04 5.85126543E-03
22  7-9.26887104E-03-5.88437866E-04-5.03448590E-03 1.12365811E-02-7.08417500E-03
22  8 1.84106728E-02-5.27610906E-03 1.08317242E-01 4.34044935E-02 4.15309422E-04
22  9 6.44313444E-03 2.63734790E-02 1.57208189E-02-3.41367052E-04 6.48068123E-03
22 10-1.08632238E-02-2.49206915E-03-5.24242269E-03 4.61704926E-03 1.76374497E-02
22 11-3.92460552E-02 5.91346420E-02-1.41242938E-01-3.35208439E-02-5.43929427E-02
22 12 1.79191146E-02-3.89424227E-02-1.77185556E-02 3.88532166E-03-4.64535720E-04
22 13-1.85662964E-03-3.15563319E-03 3.70602814E-03-1.52075375E-02-5.76191113E-03
22 14 1.20601641E-02-2.78750601E-02 1.67788112E-01 9.46139092E-02 1.77252567E-02
22 15-3.92008370E-03 6.66997048E-02 4.33587302E-02 2.39956628E-04-8.08359379E-03
22 16 7.73824855E-03 1.45700801E-04 1.97061907E-03-7.82779620E-03 1.25790506E-02
22 17-3.11946309E-02 7.83947576E-02-1.18145353E-01-1.21188857E-01-2.92165410E-02
22 18 2.92713633E-02-2.86696755E-02-5.48283893E-02 3.90337145E-03-3.57176783E-03
22 19 1.61434374E-03-4.21749271E-03 8.30644409E-03-1.28669671E-02-1.55618767E-01
22 20-1.13504614E-01-1.02829280E-01-6.86351972E-02 9.67000076E-02 6.60118034E-02
22 21 6.29700439E-02 4.58495213E-02 1.02536587E-03 1.98261905E-03-1.05412282E-01
22 22 2.54009826E-01 8.55475246E-02-1.96730086E-02-5.29362883E-02 1.46669960E-01
22 23 3.35415294E-02 9.94516176E-03-1.31319110E-02 6.24533465E-04 5.33022987E-03
22 24 5.30415971E-03-1.22641984E-02-4.15161945E-02-3.43585276E-02 5.70367955E-02
22 25 3.77408378E-02 8.13509214E-02 5.22404149E-02-1.91423427E-01-1.54451185E-01
23  1-1.17046207E-02-6.57147633E-03 1.47379899E-02-3.87651630E-02 3.27266384E-01
23  2 1.28409850E-01-1.83746866E-02-3.83592982E-02 2.39917314E-01 1.10500365E-01
23  3-2.44069957E-02-5.78803510E-03 1.26385368E-03 5.69158549E-03 9.55224605E-03
23  4 3.00422061E-04-4.66302716E-03 4.19453869E-02 4.02817598E-02 3.75604501E-03
23  5-9.10462418E-03-1.77230785E-02 3.98560205E-02-1.68998448E-02-6.05799142E-03
23  6-5.94116153E-03 1.51011353E-02-8.49065390E-03 1.64882945E-04-5.65641004E-04
23  7 2.19869835E-03 1.34144881E-04 8.27782336E-04-6.19173332E-04-6.82776787E-03
23  8 1.44826637E-02 1.98645198E-02-5.27711785E-02 1.51297498E-02 2.65732689E-02
23  9 1.69071377E-03-1.79530317E-02 9.29052421E-03 3.67017948E-05-2.25591533E-03
23 10 2.06629190E-03 1.22263785E-03 2.63647736E-03-2.43632785E-04 9.34697356E-04
23 11-1.54349080E-03 1.46782903E-02 2.54110991E-02-4.91621424E-02 1.12688443E-02
23 12 1.30200511E-02-5.77868050E-03-1.58470104E-02 1.91278652E-03-3.85722774E-03
23 13 2.29792845E-03-8.18163492E-04 2.48129903E-03-1.74163020E-03 2.92232229E-04
23 14-4.67335944E-04 7.70190304E-02 2.39488241E-02 4.74350011E-02-8.55181411E-03
23 15 5.79053817E-02 1.17127847E-03 3.00505401E-02 8.35437379E-04-5.87159295E-03
23 16 5.62463181E-03-1.82646145E-03-1.08521958E-03-8.06203681E-04-1.01395638E-02
23 17 2.40417073E-02 1.26366444E-01 3.50092314E-02-1.26094231E-01 2.02122590E-02
23 18 5.46366257E-02 2.81548209E-02-6.79660657E-02 1.32831875E-02-1.34364316E-02
23 19 1.98470832E-04-6.23621318E-03 1.70505203E-02 1.52274460E-02 1.89509868E-02
23 20 1.59177202E-02-1.34055551E-02-6.44875595E-03 4.43073456E-03 4.23484610E-03
23 21 3.83767455E-02 2.74968476E-02 8.39906489E-04 9.38451930E-03-2.29761091E-01
23 22-1.99586748E-01 1.45815230E-01-4.64621959E-02-1.16747834E-01-1.31356510E-01
23 23 7.48668916E-02 6.74580474E-03-1.34657694E-02 3.11279778E-03-1.54183451E-02
23 24 1.07997110E-02 1.08549285E-02 1.43804143E-02 9.64573735E-03-2.28090231E-01
23 25-1.99175643E-01 9.82742089E-02 8.90862090E-02 3.14442211E-02 1.86277448E-02
24  1 4.95445226E-03 1.02367569E-02 2.83251149E-03-7.01619437E-03 5.32113256E-02
24  2 1.63478433E-02 1.46230931E-03-1.52605395E-02 4.39063795E-02 1.19380682E-02
24  3-2.26142542E-03-4.74343721E-04 1.90505508E-03-8.72351290E-04 3.88744940E-04
24  4-1.09636921E-03 5.62878567E-04 1.28384453E-03-6.05899145E-03 5.90347578E-03
24  5-1.56849611E-02-6.50050366E-02 2.83209384E-02 2.62933534E-01 1.26974627E-02
24  6-2.82974345E-02-3.29563935E-03 1.56072230E-01-6.30680088E-03 1.06582285E-02
24  7-3.20918469E-03 9.60846116E-03-7.61402744E-03 2.15506798E-02 7.71940970E-04
24  8-9.50273999E-03-2.03980605E-01-1.10806269E-01-1.96409875E-01 1.78924509E-03
24  9-1.09983403E-01-9.20179074E-02-1.07278784E-01-5.52015808E-04 3.15340620E-03
24 10 4.57974880E-03 3.69284637E-03-6.01862274E-03 2.29042524E-02 1.72452213E-02
24 11-3.60104860E-02-5.07816929E-02-4.59300251E-02 2.30504623E-01-8.99365989E-02
24 12-5.63738054E-02 4.90998451E-03 9.08214937E-02 9.08688089E-04 4.86275022E-03
24 13-3.86921893E-03 8.40671358E-04-1.60575808E-03 1.50732573E-02 7.56550772E-05
24 14-2.94791166E-04-6.65152952E-02-2.36706287E-02-9.90967353E-02 2.06599181E-02
24 15-5.17504975E-02 1.52272158E-02-4.92445909E-02 3.67832485E-03 5.98891904E-03
24 16-1.10777638E-02-5.27444195E-03-1.47097077E-03 8.00638374E-03-1.05433000E-02
24 17 2.50704449E-02-2.10560656E-03 5.96605296E-02 4.74142317E-02 4.52166813E-02
24 18-2.43769323E-03 1.91794706E-02 2.95682414E-02 2.61950901E-03-7.55306579E-05
24 19-4.15627168E-03-4.43815578E-03-1.82240015E-03 3.52090488E-03-1.49017555E-01
24 20-1.10379018E-01 8.10652854E-02 8.43496120E-02 1.55975331E-01 1.37655516E-01
24 21-7.84953670E-02-7.19804750E-02 8.53460564E-03-1.89218186E-02 4.17682379E-02
24 22-8.24915331E-02-3.15944285E-02-3.03743670E-02 3.04649022E-02-4.17686300E-02
24 23-1.36094111E-02-3.89179287E-03 4.92622986E-03-1.04939889E-04-2.69387356E-03
24 24-1.35530652E-03 4.59117292E-03 1.85940566E-01 1.63927940E-01-2.27901245E-02
24 25-2.28633772E-02-3.11293207E-02 2.87198332E-03 6.19526786E-02 6.05111319E-02
25  1-3.56370833E-03 9.34013126E-04 9.47573270E-04-1.73297752E-03-1.48813338E-01
25  2-7.96409672E-02 4.75696729E-02-1.42088254E-02-1.26000229E-01-6.53013385E-02
25  3 3.51384251E-02 1.04430394E-03-1.37633406E-03 1.00103955E-03-1.91610717E-03
25  4 2.16702926E-03 1.36878492E-03 3.72803218E-03 8.52694326E-03 1.03116495E-02
25  5-2.55051047E-02 1.61358335E-01 1.10609507E-01 6.26245914E-02-8.43201728E-03
25  6 1.11149621E-01 4.89689324E-02 4.16708495E-02 6.37946864E-03-2.80402875E-03
25  7-1.23538915E-03-7.59425999E-03-2.77107760E-03 1.56847091E-02-1.22516061E-02
25  8 2.18639595E-02 2.16173742E-01-1.50925399E-02-1.90301355E-01 4.46812257E-02
25  9 1.35901901E-01-1.25746873E-02-1.15572666E-01-1.48423859E-04 3.65949858E-03
25 10-1.15815828E-03 1.03444607E-02 9.40163270E-03 1.35285964E-02 1.43328539E-02
25 11-3.33147647E-02 2.80237106E-01 1.13687090E-01 1.72696693E-02-3.85203842E-02
25 12 1.82624778E-01 6.99915548E-02-8.74922479E-03 6.97212069E-04-3.41846018E-03
25 13 4.27949816E-03-7.87262407E-04-4.08537705E-03 5.50782282E-03-2.95586348E-03
25 14 6.57770860E-03 2.14844619E-01 6.45378894E-02-2.54641640E-02 5.73109837E-03
25 15 1.36494935E-01 4.26974072E-02-1.92241642E-02-9.05664126E-03 7.79332255E-03
25 16 1.49552536E-03 7.23159596E-03-4.62391681E-03-1.46162841E-03-2.97320517E-03
25 17 6.50823570E-03-2.13714422E-02 9.59774203E-03-1.11822450E-02 1.78239713E-02
25 18 7.82951795E-03-1.88455974E-03-2.60993357E-04-9.80266709E-03 8.96164866E-03
25 19 9.14490063E-04 1.38815364E-02 1.27544354E-03 2.33339741E-04-6.04092027E-02
25 20-4.53548595E-02 3.68020242E-02 4.54082545E-02 7.94507863E-02 7.74038903E-02
25 21-5.41040975E-03 1.95541819E-03 4.44352790E-03-8.70368978E-03-8.00061336E-03
25 22-6.19730277E-02 2.79824996E-02-1.50610399E-02-2.96681587E-02-3.62543569E-02
25 23 2.19941544E-02-2.83059099E-03 1.08515046E-03 1.18178938E-03-2.12769295E-03
25 24 1.38010483E-04 2.62351346E-03 1.00116083E-01 9.80047690E-02-3.73665957E-02
25 25-4.90641972E-03-1.01586998E-02-2.21077360E-02 2.57898013E-02 3.05418068E-02
26  1-6.19508592E-03-8.39597317E-03-2.79309681E-03 7.13540959E-03-1.81933089E-01
26  2-8.47468745E-02 3.83284482E-02 9.80608256E-03-1.69210977E-01-7.78810950E-02
26  3 3.23563538E-02-1.88773892E-03 8.98218930E-04 7.29755724E-04 9.74892413E-04
26  4 1.28026545E-03-1.63496190E-04-3.91272299E-03 5.88028377E-03-3.70453474E-03
26  5 9.96480313E-03-2.79997885E-01-9.29645403E-02 4.04452674E-02-1.13816160E-02
26  6-2.11933593E-01-5.38127198E-02 2.93093613E-02-8.09263432E-03 6.34817269E-03
26  7 1.14441609E-03 1.17587913E-02 2.05088367E-03-8.16173756E-03 4.22177484E-03
26  8-8.45068192E-03-2.44163721E-01-6.30356486E-02 1.25908991E-01 2.45622886E-03
26  9-1.89040648E-01-2.59255354E-02 9.34570874E-02 1.04278468E-02-1.00458312E-02
26 10-4.41903340E-04-1.55540954E-02 2.05510900E-04 1.99598407E-03-1.27888254E-03
26 11 3.48672424E-03 1.11187632E-01 4.61726201E-02-6.92067415E-02 1.66739804E-02
26 12 8.34874111E-02 1.30356793E-02-3.41744361E-02 1.74894503E-02-1.17113544E-02
26 13-5.49059823E-03-1.45839540E-02 1.27994439E-02 3.82384487E-03-8.06874008E-03
26 14 1.85785737E-02 3.05541423E-01 1.15473402E-01-2.22460989E-02 9.13727152E-03
26 15 2.55570558E-01 8.24324668E-02-2.09956334E-02-4.63932934E-03-1.69963125E-04
26 16 3.76966549E-03 2.15341344E-03-3.55889032E-03-4.00435417E-03 4.31510298E-03
26 17-1.17544755E-02 7.69802953E-02 1.72188237E-02-3.11539748E-02-1.05656572E-02
26 18 6.24252884E-02 2.08639743E-02-1.59764803E-02-1.20518952E-02 1.22894146E-02
26 19 4.84472055E-04 1.81268378E-02 4.84968547E-03-1.84328977E-03 1.88383109E-02
26 20 1.91398167E-02-2.24309626E-02-2.47376805E-02-2.02872470E-02-2.81237390E-02
26 21 8.63152367E-03 1.74525069E-02-3.66781539E-03 8.21201773E-03-2.56427767E-02
26 22 1.80942765E-03 1.30781000E-02 1.91455379E-02-2.56143915E-02-9.23348830E-03
26 23 9.51966570E-03 1.43263704E-03-1.43967492E-03-8.16065197E-04 7.32325200E-04
26 24 3.68913354E-03 4.44940450E-04-1.49970863E-02-2.03041970E-02-1.59012667E-02
26 25-1.88223103E-02 2.00495794E-02 4.21980941E-03-9.40889643E-03-1.53494174E-02
27  1-1.59657673E-02-4.10597579E-02-7.08794971E-03 1.59306889E-02-2.30815492E-01
27  2-1.11922814E-01 5.32028440E-02 3.97740298E-02-2.78623238E-01-1.45919930E-01
27  3 6.39554979E-02-1.29410028E-02 8.35736853E-03 2.08210369E-03 1.04437710E-02
27  4-4.48843606E-03-5.03488237E-03-1.23537894E-02-2.00978928E-02 7.13331229E-04
27  5-9.01103042E-04 2.45444840E-01 7.46517726E-02-5.18058705E-02-2.35888512E-03
27  6 2.60512749E-01 7.89238188E-02-5.33730334E-02-6.76266422E-04 1.28850233E-04
27  7 1.05183663E-03-3.93239105E-04-2.58731177E-03-8.69096286E-04-8.04465315E-04
27  8 3.17418938E-03-2.69369446E-02-6.11037048E-03 1.16121654E-02 5.02094408E-05
27  9-3.53963442E-02-1.38339830E-02 1.13393581E-02-1.54939021E-02 9.73077279E-03
27 10 5.75793027E-03 1.42021708E-02-1.13959424E-02-8.62262384E-03 1.40743037E-04
27 11 4.11941431E-05-3.07456578E-01-1.10835903E-01 7.31490242E-02-4.00089084E-03
27 12-3.25341678E-01-1.10971579E-01 8.08991837E-02 4.27854231E-03-4.15923140E-03
27 13-1.81427150E-04-6.01087391E-03-1.74656238E-04 4.35151142E-04-3.38743205E-03
27 14 9.03805512E-03 1.14975433E-01 3.87989400E-02-1.70518812E-02 6.08843633E-03
27 15 1.15444682E-01 5.53468995E-02-1.96936010E-02 1.58305136E-02-1.69215655E-02
27 16 8.37111036E-04-2.28656103E-02-5.87008855E-03 4.77679962E-03 1.13660747E-03
27 17-3.96649351E-03 3.20047436E-01 1.29386675E-01-6.91200815E-02 2.04226693E-02
27 18 3.47186211E-01 1.32148187E-01-5.20228905E-02-9.62072193E-03 1.03457739E-02
27 19 2.82075487E-04 1.31985500E-02 2.39765300E-03-1.95140831E-03 2.44457552E-03
27 20 3.30813169E-03-5.05087288E-03-1.01712532E-02 5.48840523E-04-1.03806928E-03
27 21-6.29664472E-03-1.74901178E-03-4.74023551E-03 1.14643084E-02-2.43612333E-02
27 22-4.68381441E-03 2.99220625E-03 2.08726445E-02-1.33441065E-02-9.58592357E-03
27 23 4.98658830E-03 5.96751083E-03-2.74309445E-03-4.26666028E-03-1.27714899E-03
27 24 1.65076541E-02 6.90438348E-03 2.91904751E-03-4.81369741E-03-6.15318187E-02
27 25-1.44395683E-01 4.97043686E-02 9.43352897E-02-2.25557448E-03-1.49402245E-02
28  1-3.99296257E-02-2.37054632E-01-3.00488177E-02 5.70965167E-02-1.20153523E-01
28  2-9.28846147E-02 4.79527405E-02 3.02211894E-01-1.82924125E-01-1.77346786E-01
28  3 9.46843276E-02-1.72025952E-02 2.82169166E-03-4.48935609E-04 1.06152563E-02
28  4-9.82070558E-03-7.01005590E-03-3.38901683E-02-2.20188859E-01 1.85849554E-03
28  5-5.63368224E-03-2.77730760E-01-8.25779094E-02 4.51821412E-02 1.18089557E-02
28  6-4.16285627E-01-1.46082617E-01 5.58908738E-02 7.30807399E-03-5.98190875E-03
28  7-1.34884902E-03-1.10493829E-02-8.62391862E-04 7.74690584E-03-9.94451434E-03
28  8 1.83702643E-02 2.39233956E-01 4.61759159E-02-1.12103351E-01 7.30316853E-02
28  9 3.60888177E-01 5.65189855E-02-1.46852685E-01 1.10135530E-02-8.82948642E-03
28 10-3.29455385E-03-1.36967448E-02 5.95904568E-03 2.76745570E-03 2.98587473E-03
28 11-3.97673474E-03 4.55335167E-02 2.04966131E-02-1.09892029E-02-8.30671899E-02
28 12 5.87853751E-02 4.76326587E-02-8.77357259E-03-1.80193579E-02 7.57028140E-03
28 13 1.05635187E-02 1.20934005E-02-1.87301025E-02-5.00808758E-03 6.37743084E-03
28 14-8.60718314E-03-2.31111104E-01-1.02061338E-01 2.90122491E-02-5.63730939E-02
28 15-3.82479214E-01-1.01185815E-01-1.90990056E-02 2.04525475E-03-7.20864779E-03
28 16 8.67119579E-03-8.81860458E-03-1.33133390E-02-8.58443799E-04 2.41860044E-03
28 17 2.49168049E-03 2.95740577E-01 1.47674074E-01-7.31348655E-02-1.53687326E-03
28 18 4.29176213E-01 1.63844973E-01-5.68566613E-02 5.48263901E-04 1.37909381E-04
28 19 3.26312729E-03-8.67081374E-03-1.06979998E-02-6.32221944E-03-1.55595005E-02
28 20-4.84126600E-02 1.68818632E-02 5.73364834E-02 1.29500200E-02 6.62371926E-02
28 21 2.93634425E-02 1.01746749E-01-1.01271533E-02 1.45992020E-02-1.52543859E-02
28 22-7.56266993E-03-1.43558006E-02 1.25453085E-01-1.54798808E-02 2.97337100E-02
28 23-2.20670539E-02 5.76496729E-03-3.66243549E-03-5.21661240E-03-3.77269262E-03
28 24 2.04090792E-02 1.28928619E-02-2.74883233E-02-8.81626110E-02-8.64126113E-02
28 25-2.22733012E-01 5.26831264E-02 3.01174523E-02 1.23453381E-02-1.03709841E-02
29  1-1.31925795E-01-1.09783254E+00-1.08205959E-01 1.84470866E-01 1.50174163E-01
29  2-1.46349786E-01 5.20136140E-02 1.33215414E+00 3.06004262E-01-3.19348487E-01
29  3 9.42502419E-02-1.34782123E-02-2.57166955E-02-1.86542614E-02-3.98327328E-04
29  4 2.79355622E-03-1.64844945E-03-9.44180759E-02-8.22406015E-01 5.03795003E-03
29  5-1.23326815E-02 6.99433391E-02 3.37228739E-02-1.12944337E-02-4.61745435E-02
29  6 1.27491253E-01 5.15764297E-02-1.13390373E-02-2.30437120E-03 2.88295836E-03
29  7 3.12314209E-04 3.31429405E-03 1.48081988E-03-2.92567852E-03-5.05379479E-03
29  8 1.70405745E-02-7.36173768E-02-3.48182319E-02 4.08210112E-02-2.00551856E-02
29  9-1.49840523E-01-2.00117716E-02 3.98122248E-02-1.74376432E-03-9.81585975E-04
29 10 3.16330697E-03 6.36798562E-03 1.68772638E-03 2.74184428E-03 1.11248347E-02
29 11-2.46890365E-02 2.20171695E-02 5.49560744E-02-1.82128190E-02-1.06307075E-01
29 12 4.07148354E-02 4.83668058E-02-1.06700601E-01 3.56376411E-03 1.36009494E-03
29 13-3.22030365E-03-2.94469735E-03 7.67532481E-03-1.84397014E-03-2.59404654E-02
29 14 6.30187996E-02 3.90513987E-02-1.60138279E-02 3.25422379E-02 1.60183905E-01
29 15 5.18791843E-03 1.36791360E-01 2.51345191E-01-4.61009144E-03-3.97396909E-03
29 16 6.25264037E-03 9.18568030E-03 1.98539544E-04 5.78873771E-03 9.11436170E-03
29 17-2.33763543E-02-1.03395261E-01 4.15072472E-02-4.03114839E-02 2.15048874E-01
29 18-1.91928585E-01 1.64345209E-01-2.23349547E-02 1.66831479E-03 9.05408462E-03
29 19-9.12782644E-04-6.95950421E-03 7.45109165E-04 2.68039156E-03 9.02131047E-03
29 20 4.14072630E-02-4.61150390E-03 3.01062991E-02-2.86982194E-03-1.31168406E-02
29 21 2.32836954E-02-2.82006028E-01-2.84610203E-02 4.31710891E-02 4.70982963E-02
29 22-5.04732270E-02-4.05326506E-02 3.29853562E-01 7.09169579E-02-1.28110026E-01
29 23-1.95400188E-01-5.41530789E-03-1.97026083E-03 2.94233730E-03 9.67541831E-04
29 24-5.00310132E-03 4.03053321E-03 1.96226750E-02 3.32285109E-02-4.57206895E-03
29 25-1.50745911E-01-2.66776624E-02-1.32956563E-01 1.36360665E-02-2.94909522E-01
30  1-4.37809519E-02-2.85444036E-01 1.01493198E-02-1.28739338E-02-6.27031481E-02
30  2-6.76180655E-02-1.36052464E-01-1.62993879E-01-1.07111315E-01-1.32633174E-01
30  3-2.71846621E-01-3.59610620E-03-4.54629067E-03 1.43907718E-02 6.60924147E-03
30  4-5.44346175E-03-8.49924441E-03 6.29903351E-02 5.82332842E-01-3.14330770E-03
30  5 5.87289439E-03 1.10752543E-01 1.58550040E-02 4.00489157E-02-3.20764664E-02
30  6 2.38897597E-01 1.75682703E-02 4.45736707E-02-3.13793465E-03-1.13190339E-03
30  7 2.43203328E-03 7.80710663E-03 9.28243547E-03-1.02893590E-02 5.09146950E-02
30  8-7.47972917E-02-1.41970669E-01 5.77194528E-02 1.54221340E-01-5.68386413E-01
30  9-2.65872406E-01 1.42613182E-01 3.62116112E-01 2.95521260E-03 6.51171273E-03
30 10 1.87717042E-03 6.50272690E-03 1.25390706E-02 1.19503795E-02-1.44827865E-03
30 11 8.69512206E-03 2.07089816E-01 9.36588602E-02-8.94001410E-02-1.42984378E-02
30 12 3.53514473E-01 1.62459828E-01-1.18560050E-01-3.51297829E-03 2.02506938E-02
30 13-1.56229408E-02 5.53091848E-03 5.48857279E-03-2.76017825E-03-4.17997749E-03
30 14 1.16029863E-02-1.84139169E-01-6.26182705E-02-6.25351085E-02 3.55658208E-02
30 15-3.29497402E-01-2.09751288E-01-1.86340642E-01-6.41159599E-03-7.05042863E-04
30 16 5.91650041E-03 1.10038230E-02-4.66357428E-03-6.46986546E-03-6.92087878E-04
30 17 2.34658200E-03 1.18262956E-01 2.55685057E-02-8.87939365E-02-2.90641322E-02
30 18 1.26195880E-01-5.57768150E-02-1.99108288E-01 2.58690608E-03 6.47823756E-03
30 19-7.81940721E-03-1.51497881E-02-1.93622598E-02 7.91575811E-04 3.16024613E-02
30 20 2.15444040E-01-4.39542544E-03-4.25289335E-02-3.67017162E-02-1.49134768E-01
30 21 2.18973286E-02 2.83971550E-01 2.03832265E-02-2.45687902E-02 1.10940103E-01
30 22 2.92733972E-02-7.21825373E-02-3.59518128E-01 3.96017716E-01 8.21900396E-02
30 23-2.08454181E-01 1.87640075E-03-1.05308765E-04 2.10181157E-03-8.05558514E-03
30 24 1.32283035E-02 2.32452135E-03 9.42286195E-02 6.97544405E-01-6.30998789E-02
30 25-4.29100643E-01 3.53828739E-02 5.82888763E-01 1.06281843E-04-3.54403051E-02
31  1-1.02734385E-01-9.09104401E-01 2.07781986E-03 3.31378818E-03 3.47232103E-02
31  2-1.47589263E-01-2.84562204E-01-1.14126798E-01 7.81200462E-02-3.78568223E-01
31  3-6.19914380E-01 5.07698686E-03-1.68107408E-02 1.46061728E-02 6.98613853E-03
31  4 1.01927703E-02-4.76113173E-03 1.05149732E-01 9.91166460E-01 6.98983841E-03
31  5-1.14092506E-02-5.64296832E-02-3.51846051E-02-2.11381430E-02-7.12872770E-02
31  6-1.24629494E-01-9.83756125E-02-1.70589173E-02 1.83546941E-03-1.84790250E-03
31  7 1.55477888E-03-3.81250194E-03-3.73037250E-03 4.64065211E-03-2.51701532E-03
31  8-1.55681572E-03 7.33427532E-02 1.50488991E-02-8.00326827E-02-3.99605808E-03
31  9 1.71427397E-01 3.23094730E-02-1.76724591E-01-1.01090243E-03-2.79831075E-03
31 10 9.18623804E-04-4.65003968E-03-6.80943646E-03-5.73564690E-03 9.31579443E-03
31 11-2.55199254E-02-1.32297659E-01-3.77792812E-02-6.52037629E-04-1.45541851E-01
31 12-2.63691688E-01-7.11171403E-02-4.26023011E-02 1.60118116E-03-7.77510143E-04
31 13-1.35457825E-04-4.76132910E-03-9.48768001E-03 7.88476137E-03-4.67925598E-03
31 14 8.55909508E-03 8.76692148E-02-3.89269397E-02-1.27683900E-01-7.98925859E-02
31 15 1.70379803E-01 4.17681578E-02-3.65601888E-01 7.86156113E-03-1.29729798E-02
31 16 1.33189194E-03 1.43383099E-04 4.99877015E-03-2.66092573E-04 3.84477825E-03
31 17-2.71659788E-02-6.47269048E-02-4.56663170E-02-6.87736101E-02 8.22383129E-02
31 18-3.95304140E-02-1.03671776E-01-1.46004196E-03 2.60405129E-04 2.72471180E-02
31 19-2.66503978E-02-1.00643423E-03-1.18548339E-03 1.69501704E-02-8.52699914E-03
31 20-2.65428149E-02 2.82147074E-02 2.42081454E-01 1.53120944E-02 1.50173828E-01
31 21-2.88543321E-03 4.40843645E-01 2.57902657E-02-5.52184379E-02-6.00703030E-02
31 22-1.13744608E-01-8.76438007E-02-1.40631493E-01-2.08513213E-01-3.02850606E-01
31 23-1.50094469E-01-3.17357256E-03 7.80097932E-04 4.66462716E-03 4.45026067E-03
31 24-2.45848302E-03-7.71069786E-03-3.72768517E-02-1.45729796E-01 5.12818552E-02
31 25 4.77275581E-01-1.68974839E-02-1.39729541E-01-1.98871700E-02-2.59616849E-01
32  1 4.56268636E-02 1.05170002E-01 2.40630835E-02-4.01724463E-02-2.70063767E-02
32  2 2.49644737E-03-7.77201111E-02-2.87555990E-01-4.48951081E-02-1.02441060E-02
32  3-1.87266631E-01 2.97907205E-03 9.06911225E-03 2.15425066E-03-6.38677703E-03
32  4-3.84520899E-03-9.19244100E-05 1.62693369E-02 3.67692944E-01 1.17959141E-02
32  5-2.09214939E-02 2.77436367E-02 1.09551687E-02-1.13402398E-01-9.62018153E-02
32  6 9.65379323E-02 4.89478428E-02-2.56298883E-01-3.75161740E-03 9.16317593E-03
32  7-3.73475766E-03 5.11843025E-03-4.79498060E-03 1.22389334E-02-4.54231105E-02
32  8 9.50151871E-02-9.97835315E-02-1.28414161E-01-1.36257046E-01 4.87126301E-01
32  9-2.85879191E-01-2.29538488E-01-2.29083690E-01 2.80186469E-03-1.30146672E-03
32 10 7.40246180E-04 2.27074426E-03 9.97698308E-03-1.16435914E-02-9.61167582E-03
32 11 4.32163234E-02 9.46480467E-02-1.29744562E-02-3.06328533E-02 9.26722380E-02
32 12 1.97054721E-01-5.92377068E-03-3.38663529E-02 2.13412167E-03-3.54509234E-03
32 13 5.84982927E-03 7.26623459E-03 5.22020157E-03 8.62785128E-03 1.03442337E-02
32 14 1.20093039E-02-2.71471596E-02-4.67857593E-02-3.04454020E-02-2.65159107E-01
32 15-6.61006560E-02-8.97755259E-02 6.66561567E-03-1.38159340E-03 1.33455665E-02
32 16-3.14225699E-03 1.10071475E-03 2.56998595E-03-6.92904592E-03 4.99786969E-03
32 17 4.03017470E-02 9.38807046E-03-1.88517759E-02 5.71935756E-02-2.09646643E-01
32 18-5.38353568E-03 4.69437271E-02 2.40898902E-01-1.64822078E-03-8.63348316E-04
32 19 1.33176102E-02-3.99120569E-03-8.03743913E-03 5.02169381E-03-3.27497236E-02
32 20-2.98197255E-01 1.74898831E-02 1.24483753E-01 5.20089131E-02 3.61436812E-01
32 21-1.96583935E-02 6.11639526E-02-1.08645373E-01 1.35019440E-01 5.97038321E-02
32 22 6.37303746E-02-1.46466717E-01 1.66799380E+00 1.63523828E-01 1.68131884E-01
32 23-2.98738284E-01 5.64973811E-05-1.50092521E-02-4.79823845E-03-1.20937196E-03
32 24 7.80014299E-03-2.21929882E-03-4.28212470E-02-7.00084670E-01-5.28508463E-02
32 25-9.56702633E-01 2.62408603E-02-5.71607396E-01-5.35902031E-02-6.97510582E-01
33  1-3.07630719E-02-1.12781058E-01-4.14353962E-02 8.45328152E-02-5.89617479E-03
33  2 5.94253060E-02-2.87954330E-02 5.21972862E-01-5.07939898E-02 1.71801045E-01
33  3-9.64034979E-02-2.85940772E-03-1.00152310E-02-4.17820394E-03 3.94930862E-03
33  4-2.48770711E-03 2.93470472E-03-2.09397367E-02-1.45974850E-01-1.21944672E-03
33  5 3.60253591E-03 4.40499898E-02-4.48636861E-02-7.16173816E-02 1.40518852E-01
33  6 1.19322113E-01-1.63923843E-01-1.84055630E-01-3.08059121E-03 2.39244935E-03
33  7 9.36794727E-04 4.81764609E-03-1.20698642E-03 1.58683270E-03-6.98407018E-03
33  8-9.70211055E-03-8.09113000E-02-3.81332087E-02-3.68896405E-02 1.81802897E-01
33  9-3.15599961E-02-3.17254908E-01 1.07862371E-01-2.04317705E-03 6.89318596E-03
33 10-7.53927818E-03-5.50132825E-03 1.03923257E-03-8.47343229E-03 3.64039065E-02
33 11-6.13621246E-02 2.59321823E-02-2.05908777E-02-7.49236714E-02-8.15659554E-01
33 12 1.14317674E-01-2.42537286E-01-5.43504954E-02 3.24641650E-03-9.41557228E-04
33 13 3.61791911E-03 2.58104956E-03-1.53453219E-03 1.70706294E-02 5.24293976E-02
33 14-9.87049756E-02-5.89916418E-03 4.00549019E-02-8.49163172E-02-7.88745147E-01
33 15-5.23063630E-02 1.63537140E-01-4.36533666E-01-5.16943625E-03-1.11276864E-02
33 16 2.55556595E-02 8.45228077E-03 4.14784219E-03 6.42064082E-03 4.09445133E-04
33 17 9.15469380E-03-6.12219580E-02 7.87687932E-02-7.85853833E-02-2.01334306E-01
33 18-1.47732705E-01 2.01191585E-01-7.19991156E-02 2.41590897E-03 1.09856129E-02
33 19-1.62989864E-02-1.31042949E-02 8.99030323E-03-3.26349826E-02-7.23710234E-05
33 20-1.14147843E-01 2.94157076E-02 7.59453761E-01 6.06219230E-03 2.42979859E-01
33 21 7.81088621E-02 1.01669151E+00 4.59026556E-02-8.90522400E-02-6.26949757E-02
33 22 2.13814335E-01-1.88854089E-02-4.33673114E-01-1.88894773E-01 6.55437035E-01
33 23 8.44974120E-02-1.00917098E-02 1.10939386E-02 4.93920983E-03-8.55414695E-03
33 24-6.08386654E-03 2.17384602E-02-5.11109250E-02-3.47691367E-01-3.84225266E-02
33 25-2.85170208E-01-3.19756185E-02-2.12658540E-01 1.22842659E-01 1.13990041E+00
34  1-1.83447701E-02-2.24746669E-01-2.20674255E-03 3.55566262E-03 5.44504651E-03
34  2-3.74224421E-02-7.18638008E-02 2.62003575E-02 1.04458222E-02-6.83353443E-02
34  3-1.62143287E-01 6.84658237E-04-1.73045509E-03-2.09792172E-04-4.18357562E-04
34  4 4.62977628E-04-1.58563702E-03 1.73992802E-02 2.38338018E-01-1.07266502E-01
34  5 1.65163541E-01-5.63476942E-02 2.09982317E-01 6.16425155E-02 1.57410756E+00
34  6-1.55451705E-01 6.14783582E-01 1.05351789E-01-1.40472756E-03-1.18149150E-03
34  7-1.26517527E-02-1.77495742E-03-2.85185630E-03-1.34252559E-03-1.43138735E-02
34  8 1.12922068E-03 3.51198356E-02-7.47007578E-02-2.51194589E-02 5.61520984E-01
34  9 1.06588007E-01-3.57443442E-01 4.07219627E-02-3.22742290E-04 5.32903590E-03
34 10-5.67168930E-03 9.26092058E-04-1.87270154E-03 4.65034918E-03-1.52427091E-02
34 11 2.44286193E-02-6.44511156E-04 6.86142096E-02 1.28738629E-01 3.51990000E-01
34 12 4.81771225E-02 2.69826798E-01 6.25729494E-01-5.18418518E-03-9.67824378E-03
34 13 9.86910991E-03 3.89654582E-03 5.94001608E-04 6.87968915E-03 1.21226632E-02
34 14-3.31426282E-02 1.95801313E-02-2.44803869E-03 2.95083025E-02-9.79834468E-02
34 15 1.88151104E-02-7.87765976E-02-1.62153529E-01-2.32498344E-03 6.51697615E-03
34 16-2.24343507E-03-2.30374562E-03-1.19960414E-03 8.29395549E-03-1.53038454E-02
34 17 4.68755001E-02-3.19742203E-02 3.72188361E-02-1.11579750E-02 5.38213295E-03
34 18-4.04527167E-02-1.88585318E-02-4.22067031E-02 1.44483697E-03-4.59955119E-04
34 19-3.90767114E-03 8.83527738E-05-6.23266186E-04-3.55857984E-03-6.08157946E-02
34 20-9.29275344E-01 1.86571260E-02-8.73300013E-01-7.09831066E-02-1.29272784E+00
34 21-6.59399780E-03 8.49550550E-02 8.40622207E-03-1.97479650E-02-8.27271419E-04
34 22 7.21273029E-02-3.78402708E-02-6.02530570E-02-3.03868569E-02 2.78239392E-01
34 23-8.17912267E-02-3.91357933E-03 5.56326452E-04 3.46770137E-03-3.22362537E-03
34 24-1.90331233E-04 5.56662227E-03 1.77388420E-02-2.55406981E-01-2.46012972E-02
34 25-2.37073523E-01-1.28419438E-02-7.38345892E-02 3.52398228E-02 3.13520175E-01
35  1-5.16951464E-03 1.60068775E-02 1.83722228E-03-6.69877680E-03-1.34368431E-02
35  2-2.42348565E-02 6.44039233E-02-5.79637151E-02-7.19160389E-02-1.17064316E-01
35  3 1.40217891E-01-6.88135618E-03 4.50777942E-03 2.03683600E-03 7.76256955E-03
35  4-4.86418840E-03-1.69308293E-03-1.67155605E-02-2.00903247E-01-2.78787073E-02
35  5 5.22688338E-02 5.13578571E-02 4.10796392E-02-1.36855127E-01 3.95534714E-01
35  6 1.55868563E-01 2.02181450E-01-3.63574346E-01-7.97243464E-03 1.03467041E-02
35  7-4.83281133E-03 1.51389540E-02-1.18381723E-03 3.51575677E-03-1.42143831E-02
35  8-1.34010442E-02-2.35345997E-01-1.07584869E-01-3.24649349E-02 4.17353176E-01
35  9-3.77506116E-01-2.90008284E-01-1.09102084E-02 3.88769714E-03-3.00881653E-04
35 10-1.18904868E-02-3.60679791E-03 8.09338226E-03-1.08234212E-02-2.88986513E-03
35 11-1.61491456E-03 1.56555817E-01 3.35139454E-02-6.01007258E-02-1.49202308E-01
35 12 4.08322673E-01 2.14305261E-02-7.63163331E-02-1.18995774E-03-2.06209624E-03
35 13-3.04839723E-03 1.43443767E-02 3.56790638E-03 1.27837621E-02 1.54416411E-02
35 14-4.47255603E-02-1.53103107E-01-1.08070776E-01-2.26121152E-03-3.07547346E-01
35 15-3.62328479E-01-1.25258009E-01-1.27968044E-01-4.23457916E-03 4.45895938E-04
35 16-1.71511365E-04 2.37556600E-03-8.80632202E-03-1.15559997E-02 9.89550134E-03
35 17-6.92056354E-02 1.72624214E-01 4.53460046E-02 2.30642175E-02-1.41138056E-02
35 18 3.71381147E-01 9.40799991E-02 1.85125610E-01 3.24167612E-03-8.08603460E-03
35 19-5.72160415E-03 7.12962390E-04-5.14842547E-03 6.93443337E-03-3.31435531E-02
35 20-6.63351452E-01 2.87174302E-02 2.59672751E-01 7.77660505E-03 5.85671245E-02
35 21 1.87801835E-02 2.88237366E-01 3.26116115E-02-4.79882725E-02-1.23331654E-01
35 22-1.99281798E-01 9.50345008E-02-5.01487479E-01-1.90133613E-01-6.80749445E-01
35 23 4.58111895E-01 1.30724505E-02-7.63186767E-04-8.14269016E-03 1.61700412E-02
35 24 3.93271430E-03-3.35659264E-03-4.96685399E-02-5.76719277E-01 9.11189718E-02
35 25 1.14212972E+00 2.81056587E-02 3.35398661E-01-5.21239557E-02-2.84060190E-01
36  1 5.81406969E-02 3.06160528E-01-4.22437932E-03 9.33793605E-03 1.82677944E-02
36  2 6.65807019E-02 1.03583197E-01 4.49285731E-02 6.84700975E-02 1.19631912E-01
36  3 1.82704232E-01 2.74077623E-03 4.63953923E-03-8.49720177E-03-6.51719792E-03
36  4-4.45637416E-03 7.19772368E-03-5.95765539E-02-4.54469723E-01-4.92472002E-02
36  5 7.02772912E-02-1.70417528E-02 3.65966809E-02 7.75521610E-02 7.04299451E-01
36  6-6.29677759E-02-3.03502565E-02 1.49587007E-01 2.62376389E-03-1.36168948E-02
36  7 2.06271444E-03-2.96287301E-03 1.73414411E-03-5.04995260E-03 3.44407150E-02
36  8-7.21552055E-02 1.00861700E-01 2.37775545E-02 1.94404178E-02-2.97440348E-01
36  9 2.76479877E-01 4.15371857E-03 2.94308885E-01-2.30464477E-03 1.08743974E-02
36 10-2.74704390E-03-3.48581641E-03-3.27035616E-03 9.54172252E-04 2.73926291E-02
36 11-3.65656667E-02-4.23668662E-02-1.21074172E-01-8.71662604E-02-8.50050507E-01
36 12-4.20014197E-02-5.44987718E-01-3.45702300E-02 3.70278935E-03 4.87024461E-04
36 13 1.31885403E-04-2.09673487E-03-1.00951960E-02 1.05588967E-02 4.82498165E-02
36 14-5.82931032E-02 6.57733711E-02 2.59227296E-02-1.94074552E-01-1.22476469E+00
36 15 1.02751136E-01 2.04697054E-01-6.50319670E-01 4.74177104E-03-5.47907893E-03
36 16 4.14006429E-03 1.86167027E-03 7.25613313E-03-2.66616762E-03 1.20632411E-02
36 17-2.59672339E-02-5.30811830E-02-1.19618317E-02 7.38019784E-02-1.42738446E-01
36 18-1.43242661E-01 6.05224760E-02 4.29583913E-01-2.59749974E-03 3.24937857E-03
36 19 2.19578523E-03 1.09646246E-03 1.77894123E-03-4.59753985E-04 2.44121436E-03
36 20-1.13470749E-01 1.06823767E-02 9.88135442E-01-6.26946616E-02-5.93368019E-01
36 21 1.63009035E-02 1.34177313E+00-4.75133220E-02 4.08550494E-02 1.37407783E-01
36 22-1.87343061E-01-4.46104842E-02 8.38481830E-01 4.28231297E-01-4.39293395E-01
36 23 3.75212885E-02-2.95907307E-03 2.83254309E-04-3.47941291E-03-2.35978442E-03
36 24-3.32896180E-03-7.65866297E-04 2.69941480E-02 4.53575638E-01-1.73665747E-02
36 25-1.65785337E-01-1.13138997E-02 2.93486502E-01-3.54764570E-02-1.00459185E+00
37  1-1.46947869E-02-6.38479168E-02-2.85577189E-03-1.14069609E-02 2.29280221E-02
37  2-2.54952447E-02 2.10309380E-02 1.49995233E-01 9.77173328E-02 5.83623623E-02
37  3 4.97355838E-02-6.99674917E-07-7.89516264E-03 1.51714318E-03-4.12730071E-03
37  4 1.84992418E-04 4.05193835E-04 3.89280039E-03-1.05003538E-01-2.92962551E-02
37  5 5.40148921E-02-7.60393886E-02-4.32987127E-02-2.94220233E-01 3.88176154E-01
37  6-2.55072481E-01-1.05465598E-01-9.86727970E-01 1.10332021E-03-2.19973604E-03
37  7-2.62875698E-03-4.69594852E-03-5.49235317E-03 1.60378302E-02 3.22349848E-02
37  8-4.84378895E-02 8.13081468E-02 8.50779856E-02-5.41153410E-02-4.05325581E-01
37  9 1.26084329E-01 2.13326198E-01 3.08734624E-01-6.97537837E-04-2.14401535E-04
37 10 3.95963487E-03-5.58062331E-03 7.59978539E-03-2.96365676E-02-3.14558769E-02
37 11 6.09872863E-02-7.95954644E-02 8.65385482E-03-9.18622258E-02 2.92639159E-01
37 12-6.99078379E-02-3.26454657E-01-1.29453946E-01 3.10231287E-03-4.47761429E-03
37 13-6.75909411E-03 2.83235437E-03-6.92696383E-03 8.77720043E-03-1.08575487E-02
37 14-9.11740983E-03 1.23312500E-01-2.88910342E-02 3.98451594E-02 1.98114225E-01
37 15 3.29799990E-01-2.88269756E-01 2.34522354E-01 1.67061954E-03-3.72335684E-03
37 16-3.98608410E-03 2.14253533E-03 1.05391558E-02-8.13036899E-03 1.04793682E-02
37 17-5.48223645E-02-6.82003163E-02-7.64244199E-02-5.03441388E-03-1.31211031E-01
37 18-2.82878251E-01-1.66401987E-01-2.20256050E-01-2.88338576E-03-6.88161116E-03
37 19 3.14599246E-03 2.70863620E-03-7.37622252E-03 5.76507977E-03-6.47152008E-02
37 20-1.33860198E+00 1.43456348E-02 2.12360639E-01 4.43932700E-02 7.98204284E-01
37 21-1.87536162E-03-3.79927763E-01 3.44073874E-02-1.97742925E-02 2.04077073E-01
37 22 5.98017307E-02 3.97770710E-02-1.01972257E+00 8.25689358E-01 4.66814214E-02
37 23 4.85152980E-02 7.66351063E-03-1.15631916E-03 1.87969994E-03-6.38124073E-03
37 24-1.88553810E-03-5.46107050E-03-4.03964641E-02 2.95367743E-01-2.98192288E-02
37 25-3.30836660E-01 3.30563739E-02 1.43784171E+00-2.08174782E-02 1.09108157E-01
38  1 1.41932053E-02 2.55209594E-01 3.45439569E-02-3.54354942E-02 1.65328037E-02
38  2-9.26967560E-03 8.42992392E-02-6.87927247E-01 1.97220641E-01-2.48706945E-01
38  3 4.68797916E-01 1.91439021E-02 4.67246429E-03-2.25625810E-03 4.18306983E-04
38  4 1.87621407E-03-1.73160813E-02-1.65406962E-02-1.79070653E-01 3.29212015E-02
38  5-2.57815438E-02-1.01133866E-02 1.05700670E-02-1.90613999E-02-8.06325827E-01
38  6-1.62809073E-01 3.73194036E-01-2.05821891E-01 3.18738446E-03 5.32655195E-03
38  7-3.51783079E-03-3.68063377E-04-2.82705883E-03 8.83188819E-04-5.76480696E-02
38  8 9.26869436E-02 2.12421199E-02-3.79170105E-02 4.38847789E-02 1.17687276E+00
38  9-6.28415789E-02 3.07718002E-01 2.24483985E-01 6.67094714E-04-4.10665258E-03
38 10 2.97843853E-03 1.65850345E-03 1.67390465E-03-3.15943501E-03 1.18458211E-02
38 11 5.36357110E-03 4.49641302E-03 3.75875284E-02 4.22433188E-02-4.20425905E-01
38 12 8.44181468E-02-5.98186593E-02 2.93830076E-01 2.26600158E-03-1.49935854E-02
38 13 1.51509461E-02 6.02944836E-04 1.04408149E-02-1.62884834E-02 4.95656019E-02
38 14-5.45400634E-02-2.90638155E-02 1.45222802E-01 2.07232927E-02-9.20825051E-01
38 15-1.72132225E-01 6.46517986E-01 1.56413266E-01-1.66033545E-04 2.23270741E-03
38 16-1.80034561E-03 6.29898456E-03-1.13709418E-02 2.58058529E-02-1.39781298E-01
38 17 1.87511467E-01-5.19441359E-02 3.60893691E-02-1.50497113E-01 3.01693964E+00
38 18-1.31736322E-01-2.20135796E-02-5.93620809E-01 8.49702244E-03-3.10873910E-03
38 19-1.43162552E-02 4.64268292E-03-5.58160972E-03-8.27945033E-03-2.32920220E-03
38 20-3.16585153E-02-5.15473340E-02-2.57564542E-01 2.83807942E-02 2.38094989E-01
38 21 2.04660233E-02 3.86545075E-01 8.08996403E-02-3.80539011E-02 2.46355828E-02
38 22-5.64960155E-02-2.09376170E-01-1.64205403E+00 8.71628304E-02-3.84277012E-01
38 23-1.29286381E+00 3.31746868E-03-1.90973651E-02 3.13121149E-02 1.16921997E-02
38 24 6.54083957E-03 7.26603099E-03-2.40210950E-02-1.54337429E-01-3.35616189E-02
38 25 1.41404057E-01-5.41957713E-03 5.30017892E-01-4.44840396E-02-3.73692324E-01
39  1 3.95609406E-02 1.15210112E-01-1.67380899E-02 3.40908280E-02 1.77436329E-02
39  2 3.01228426E-02 2.81240992E-02 2.37455287E-01-7.34446663E-02 1.64174925E-01
39  3 9.40181285E-02-2.12023788E-03 8.42833447E-03-1.04172463E-02-1.67420886E-03
39  4-2.94007665E-03 8.85984323E-03-5.29988781E-02-2.75463393E-01 6.34858795E-03
39  5-2.37607819E-03-5.19612892E-04 3.49419913E-03-1.00901085E-01-3.39504357E-01
39  6-1.55692604E-01 9.73617245E-02-4.33710560E-01-3.98984088E-03 4.71181924E-03
39  7-1.92831994E-03 2.10249754E-03-2.35132307E-03 1.50662586E-02 5.88867486E-02
39  8-8.30265210E-02-5.26873386E-02 1.44191620E-01 1.65720479E-02-6.73764844E-01
39  9-9.16410217E-02 6.18595904E-01-7.02705908E-02-9.98486098E-05-9.89988259E-03
39 10 2.16539399E-02-1.85348525E-03 1.27339525E-02-1.14238687E-02-9.00259069E-02
[...]
16  5-2.26534424E-01-1.48649841E-01 4.89487031E-01 2.57128568E-02-1.32670431E+00
16  6-2.35463286E-01 6.08393792E-01-1.53940374E-01 2.27543010E-01-6.11925906E-01
16  7 3.56501460E-01 2.40531838E-01 1.46271847E-01-3.62144068E-01-6.77037151E-02
16  8 2.12676421E-01-9.48731257E-02 3.05080489E-01 4.60451955E-03 2.11636913E+00
16  9-1.17072884E-01 6.71501360E-01 3.54155291E-01-2.63431849E-01 4.55546911E-01
16 10-3.16684819E-01-5.10475352E-01 2.00147891E-01-6.31997941E-01 3.02303899E-03
16 11-1.41413971E-02 2.14717847E-02 1.73205929E-02 9.65769737E-02-6.52046405E-01
16 12 2.06407950E-01-2.90826787E-01 5.32532072E-01 2.78850191E-02 2.68618524E-01
16 13-4.33384486E-01-1.04562475E-01-1.05870400E-01-1.46445271E-01-1.21146160E-02
16 14-2.29419081E-01 5.27756291E-02-5.13688265E-02 1.34575685E-01 2.51831300E-01
16 15-4.07837994E-02-3.32448660E-02-4.10132513E-01-4.52983891E-02 7.84950678E-02
16 16-1.68670741E-01-4.95573207E-02 3.57560328E-02-1.07193021E-01 1.51028574E-02
16 17 1.20218264E-01 6.15999987E-02-8.67675823E-02 1.06559178E-01-5.02036369E-01
16 18 1.95325207E-01-3.49228454E-01 5.01942081E-01 6.98270292E-02 4.70963228E-01
16 19-5.19573740E-01-1.70558836E-01-1.18297974E-01 4.58691470E-02-1.82856706E-01
16 20 4.89871863E-02 7.69134182E-02-5.96952694E-03 1.94164277E-01-4.89016500E-02
16 21 8.62226459E-02 5.63010665E-02-3.12701834E-02 2.80028959E-02 3.35294187E-02
16 22 1.83536457E-03 1.67684772E-01 6.24677090E-01 1.28613189E-02 2.09740372E-01
16 23 3.67362011E-01-1.69669021E-01-1.68090680E-01 2.73211702E-01 3.41173079E-02
16 24 4.35514863E-02 1.11275948E-01 1.98026053E-01-1.01699204E-01-7.96522626E-03
16 25-2.28904256E-02 2.50961023E-02 1.71604958E-03 1.68264460E-02 7.12181169E-02
17  1-2.29379423E-01 3.68774726E-02-9.47978423E-03 2.23587028E-02 3.90630733E-03
17  2 2.67792655E-02 7.28963057E-02-1.82630797E-01 3.26465156E-02-1.77599853E-01
17  3-1.89601417E-01-4.28769574E-02 3.10760478E-01-3.55399907E-01-1.49060032E-01
17  4-1.81905108E-01 2.30259966E-01 1.84458315E-01 1.94631003E-02 5.87520773E-03
17  5 5.42126498E-02-5.36853122E-03-3.08575229E-02-4.88616853E-02-2.41864699E-01
17  6-4.79118489E-02 2.14156929E-01 5.85485003E-02-1.54770005E-02 7.22026836E-02
17  7-5.55382176E-02 5.36759360E-02-1.18849014E-01 3.05467812E-01 4.12887712E-02
17  8-1.53786135E-01-7.41451671E-02 9.49401462E-02-1.66609617E-01-1.07707534E+00
17  9-3.01246192E-01 3.99285802E-01-6.33999767E-01 1.08238972E-01 1.60259668E-01
17 10-1.14721651E-01 1.44192466E-01-2.38337265E-01 4.84104828E-01-1.04967718E-02
17 11-1.23464337E-01-1.57237043E-01 2.77539421E-01-2.09526959E-01-4.16835978E-01
17 12-6.21090223E-01 8.09746450E-01-1.36994792E+00-4.68633725E-02-5.70789176E-01
17 13 5.59118087E-01 1.94603175E-01 2.08138441E-01-1.27585059E-01 1.36547640E-02
17 14 9.12300836E-03-1.32497286E-01 3.61781278E-01 4.06158739E-02-9.00297865E-03
17 15-6.18935240E-01 1.84764002E+00 3.88771688E-01 1.52835582E-01-2.16583773E-02
17 16-1.12066536E-01-1.42096849E-01 2.49386549E-01-7.75176508E-01-2.42475042E-02
17 17 1.52283904E-01-6.04127183E-02 2.34749957E-01 1.29961363E-01 1.01249629E+00
17 18 2.49801713E-02 6.09150514E-01 1.34364516E+00-8.26004514E-02 5.76725821E-01
17 19-5.74371852E-01-2.14810993E-01-2.64421929E-01 4.58027336E-01 1.27180623E-01
17 20-9.35292060E-02 1.57961377E-01 1.08771086E-01-1.04377554E-01-4.46117999E-02
17 21-1.35579888E-02-3.34121367E-02-3.31058093E-02 3.71709648E-02 3.22673774E-02
17 22 1.72651524E-02 1.76587977E-01 9.00357211E-01 6.31168987E-02 6.28203041E-02
17 23 4.35906069E-01-1.82552997E-01-1.38817909E-01 2.39954241E-01 3.90452127E-02
17 24 2.99108215E-03 1.71722279E-01-9.35601470E-02 4.22895344E-02-9.86633438E-03
17 25-1.53826665E-02 4.00089555E-02-2.94188829E-02-3.02019188E-02 3.84170964E-02
18  1-1.26349279E-03 3.56272788E-02-7.30917109E-03-1.27957725E-01 7.82602509E-02
18  2-1.66905274E-01 7.73156637E-02 8.66797582E-02 4.21492238E-02 1.40072187E-01
18  3 3.78270741E-01-5.93047739E-02-4.78314429E-02-6.79537941E-02 6.96229379E-02
18  4-9.58695210E-02 2.34848907E-01-8.28386653E-02-9.04362933E-02 4.38889981E-03
18  5 1.17087673E-01 7.41291325E-02-2.20440565E-01 3.56356098E-02 4.65604990E-01
18  6 1.43490483E-02-3.16061681E-01-3.65189575E-01-2.23489591E-03 2.42041586E-01
18  7-1.10766574E-01-8.67723913E-02-3.04925467E-02 1.94528968E-03-2.61069071E-02
18  8-1.26029919E-02 1.24451074E-01-2.07814350E-01 2.52680705E-01 7.62235506E-01
18  9 5.03805636E-01-8.07029877E-01 8.54324337E-01-9.53805895E-02-4.39692105E-01
18 10 4.97461805E-01 1.41985503E-01 1.91201139E-01-2.22630052E-02 9.12525587E-02
18 11-2.21354315E-01-1.02238439E-01 2.87765464E-01 1.02564692E-02-2.52220576E+00
18 12-8.35822698E-02 8.42338432E-01 1.04021109E+00 2.15808447E-01 2.30689823E-02
18 13 6.21113920E-02 3.82269861E-01-4.21244441E-01 8.82185772E-01-8.71277039E-02
18 14 1.89161452E-01-1.20065752E-01 2.58623012E-01-1.16571314E-01 2.85742364E+00
18 15-1.19803545E-01-2.53364004E-01-1.23229441E+00-2.63872827E-01 7.40034899E-01
18 16-7.43972898E-01-5.02745257E-01-4.80782021E-02 6.43989247E-02 4.36031130E-02
18 17 7.45717374E-03 1.06588896E-01-2.80331039E-01-4.82775139E-03-1.48012645E+00
18 18 1.96497167E-01-9.35188745E-01-6.48801068E-01 2.26123681E-01 3.00453633E-01
18 19-3.71885476E-01-1.52596040E-01 4.78181742E-02-4.86329361E-01-1.13998502E-02
18 20-8.58084163E-02-4.64558036E-01-1.53422651E-01 5.05773150E-02 1.46635680E-01
18 21 3.21066423E-01 6.39707412E-02-2.61471848E-02 2.43827836E-01 2.02826480E-02
18 22 2.63773289E-02 1.25329802E-01-1.05111202E-01-4.19851127E-03-1.78494072E-02
18 23-3.07530074E-02-1.39377605E-01-1.99896440E-01 1.20973722E-01 2.16242624E-02
18 24 6.20810117E-02-5.62002562E-02-1.03759470E-01 1.30176616E-01 4.51755737E-02
18 25-2.17740096E-02 5.61364792E-02-5.61352731E-02 4.95670807E-02-5.26625562E-02
19  1 1.13615287E-01-4.03760087E-01-5.11924729E-01 8.42837277E-01 3.96212759E-02
19  2-1.13029506E-01 4.56246776E-02 5.29239332E+00-3.32016013E-01 8.56336759E-01
19  3-3.00748813E-01-1.64093839E+00-1.61364895E+00-1.57116898E+00-8.48140166E-03
19  4 2.05906775E-02 7.71955023E-03 3.59246859E-02-4.85156805E-01-1.94268034E-03
19  5 4.11664081E-02 1.53529673E-03-1.89554361E-03 3.16640527E-03-4.04797771E-02
19  6-1.63205651E-02 1.68648637E-02-3.37295503E-02-8.52602133E-03-1.84227022E-02
19  7-1.28068415E-02 5.71860926E-03-2.43702743E-03 9.49768121E-04-1.61467849E-02
19  8 1.01994377E-01 4.39006181E-03-8.41271168E-03 1.28888228E-02 1.21477376E-01
19  9 2.56726584E-02-2.00080427E-02 3.92061084E-02-5.85961486E-02-4.88229754E-02
19 10-5.06419194E-02-9.91699731E-03 8.11332926E-03-1.41240718E-02-1.25037543E-02
19 11 2.01348681E-01 1.09368829E-02-3.97397469E-02-1.74509524E-02 1.94302546E-01
19 12-1.08358152E-03 1.13543871E-01 1.62764482E-01-5.52373749E-02-8.86559745E-02
19 13-8.85421328E-02 2.40440155E-02-1.74464785E-02 2.02636650E-02 2.14608231E-02
19 14-3.32093854E-03-2.19182504E-04-1.49369823E-02-2.96240544E-02-2.09706509E-01
19 15 1.49202104E-01-2.17888040E-01 3.76658254E-01 1.01099147E-01 8.62081066E-02
19 16 1.68768056E-02 1.10943563E-02-3.15269167E-02 5.11831032E-03-4.93249462E-02
19 17 4.60754151E-01 1.14718903E-01-2.35735017E-01 1.29676591E-01-1.59506948E+00
19 18-7.93650786E-01 1.41817469E+00-1.21019750E+00-1.51260642E-01-1.10983804E-01
19 19-1.53335886E-01-3.95205039E-02 3.45765736E-02-9.87234229E-02 2.15866337E-03
19 20-1.57064417E-02-1.23298080E-02-1.65524790E-01 5.32959379E-03 1.78085995E-02
19 21-2.00568019E-02-1.04481970E-01 4.32702492E-03 2.08964817E-01 9.70445566E-03
19 22-3.79289558E-03 1.58992051E-02-6.79033279E-01 8.45588256E-02-3.04460066E-01
19 23-2.93228332E-01-9.88368797E-03-4.36520287E-02-5.29673678E-02 2.15953865E-02
19 24 2.94593160E-04-5.28294265E-02 2.13383700E-03 1.75755475E-02 1.79407077E-02
19 25 5.68855419E-02 3.64038295E-02 7.81397588E-02 2.40725135E-02-9.40999734E-02
20  1 1.42017518E-02 9.35377851E-02 5.11997762E-02 1.30066936E-04-6.95573963E-02
20  2 1.45573569E-01-9.20033239E-02-5.37631023E-01-4.28311938E-02 5.58211801E-02
20  3 9.89754747E-03 1.82376488E-01 2.63833593E-01 1.82382364E-01-7.41373418E-02
20  4 5.40236056E-02-1.13168777E-01-1.50138617E-02 7.66051411E-02-5.48002156E-02
20  5 4.59903127E-01 1.81611928E-02-5.43762948E-02 2.32833590E-03-1.85371421E-01
20  6-6.78652096E-02 1.24984477E-01-8.70136609E-02-2.22419184E-01-1.90084940E-01
20  7-2.40522164E-01-6.49522928E-03-8.32648024E-03 1.22813460E-02-1.49111842E-01
20  8 9.10432733E-01 2.04279446E-02-4.70564977E-02 3.61261997E-02 7.18512789E-01
20  9 1.98237308E-02 1.46829428E-01 1.85334102E-01-5.68083709E-01-5.64529526E-01
20 10-4.87199394E-01-1.01675325E-02 2.45444985E-02-1.45578843E-02-1.72301844E-01
20 11 1.25856389E+00 3.52245745E-02-1.06040469E-01-1.89465038E-02 3.41841312E-03
20 12 1.97780807E-02 6.45355829E-02 1.87369162E-01-6.53647068E-01-6.72242992E-01
20 13-6.71426272E-01-7.89288695E-03 1.14554159E-02-4.03751979E-02-2.58110134E-01
20 14 1.68939293E+00 1.03650737E-03-1.77146558E-02-7.44979884E-02 6.50407635E-01
20 15-3.63689432E-02 2.68974726E-02 4.29974230E-02-9.91043420E-01-9.24662172E-01
20 16-9.62052335E-01-2.06422036E-02 2.46465185E-04 5.33036183E-02-2.81611119E-01
20 17 1.77214550E+00-6.44804991E-02 1.48791564E-01-3.05477081E-02 7.21435139E-01
20 18 1.63486872E-02-1.82944423E-02-8.67461750E-02-1.09788530E+00-1.17899097E+00
20 19-1.02980446E+00 7.62615996E-02-4.38317040E-02 1.30041653E-01 3.27502354E-02
20 20-7.12000706E-02 1.18372870E-01-2.20271539E-01 3.06922193E-02 4.56132374E-04
20 21 1.19971625E-01-2.69728957E-01-1.48425139E-01 8.55560027E-01 2.91546296E-02
20 22 5.43839818E-03 7.25373344E-02 5.34160395E-01-4.52569109E-02-2.02533818E-02
20 23-1.79379266E-01-6.04062339E-01-5.54108165E-01-4.38567020E-01 1.78199134E-03
20 24 8.59369013E-03 1.27311469E-02 3.69060740E-02 2.29740883E-02 5.56964137E-02
20 25-1.92587027E-01 1.11046334E-01-2.76578842E-01 2.71758035E-02-1.64609038E-01
21  1-8.04996322E-03-3.89156906E-02 1.77902589E-03 3.56146051E-04 3.47128116E-02
21  2-6.88628318E-02 4.76717868E-02-2.10872223E-01 7.96116755E-02-1.57058084E-01
21  3 5.61194356E-02-7.54692108E-03-6.31317452E-02-1.85769004E-02 4.83304250E-02
21  4-3.57735360E-02 6.82167760E-02 1.52058936E-02-2.39843028E-02-3.49343310E-01
21  5 2.32651291E+00 8.00332239E-03-2.78859685E-02-2.01153696E-03 1.00146761E+00
21  6-2.52351575E-02 8.83273509E-02-3.07969516E-02-1.36093514E+00-1.37535098E+00
21  7-1.36130044E+00 1.02094293E-02-6.07830571E-03 2.89841960E-02-2.50043304E-01
21  8 1.67128459E+00-5.24838769E-02 1.47360161E-01-3.62134822E-02 6.75195417E-01
21  9 1.10337799E-02-1.77014482E-02 1.30296272E-01-9.85064492E-01-8.88767096E-01
21 10-9.51123961E-01-3.17840950E-02-9.39975866E-03 4.48016721E-02-6.79607627E-02
21 11 4.15269726E-01-6.27311183E-02 1.07317499E-01-9.45014683E-02 1.15324597E-01
21 12 1.55169837E-01-3.82456822E-01 5.76120397E-02-2.59709691E-01-3.41224985E-01
21 13-1.52868650E-01 3.23161842E-02 3.38487085E-02-2.18969577E-02 8.20560271E-02
21 14-4.67501050E-01-4.02102471E-02 9.42642064E-02-2.86349687E-03-4.88211568E-01
21 15 7.04456967E-02-1.31833636E-01 2.47871687E-02 3.21006626E-01 3.13908974E-01
21 16 2.88103325E-01-1.83185079E-02 2.09728755E-02-7.97987328E-02 1.40016256E-01
21 17-8.64470736E-01 1.90455603E-02-3.52305314E-02 2.35484885E-02-1.21977649E-01
21 18 9.57372728E-02-2.25113322E-01 1.23154169E-01 5.44770334E-01 6.16427712E-01
21 19 5.09848896E-01-5.05595032E-02 2.03012584E-02-5.65316606E-02 1.24342997E-01
21 20-3.02237851E-01 8.12444405E-02 7.96605265E-02 1.00901153E-01-2.68216936E-01
21 21-3.23551759E-02 7.58876197E-02 8.13965942E-02-4.45782376E-01-1.94510606E-02
21 22 6.82279917E-03-2.44461170E-02-3.33276059E-01 3.74295732E-02 3.48142498E-02
21 23 5.84378771E-02 3.21623195E-01 3.07811239E-01 2.39667131E-01-1.82238218E-03
21 24-1.08316804E-02 4.18333106E-03 7.33190163E-02-1.78345538E-01-1.24369997E-02
21 25 6.70452384E-02-4.95171051E-02 1.84004520E-01-1.57766848E-02 8.74286090E-02
22  1-1.20173649E-02-6.75608544E-02-1.09295652E-02 1.88011045E-02 4.62280951E-02
22  2-8.85028216E-02 6.80705469E-02-1.57709657E-01 8.76700080E-02-1.81268720E-01
22  3 3.61598096E-02-5.37320932E-02-1.17060107E-01-6.75753071E-02 5.64462302E-02
22  4-4.58312185E-02 8.28792065E-02 2.43295747E-02-2.45693168E-02 2.30661043E-01
22  5-1.38195583E+00 6.34257333E-02-1.77285202E-01 1.12424844E-02-1.10195014E+00
22  6-2.05760631E-02 4.64840562E-02-1.00956734E-02 8.91284401E-01 1.06804825E+00
22  7 8.39541259E-01-7.77296873E-02-3.71705695E-03-1.04204408E-02-1.21783217E-01
22  8 6.78000571E-01 9.88156423E-02-2.24841607E-01 8.83757628E-02 4.10548949E-01
22  9-1.10599720E-01 1.57783495E-01-1.30535698E-01-4.65166338E-01-6.63017698E-01
22 10-3.04248631E-01 7.86743157E-02 4.16054590E-02-4.42328462E-04-2.89724379E-01
22 11 1.74442792E+00-1.58764200E-02 2.75832980E-02-6.78643171E-03 9.60511230E-01
22 12-4.25670529E-02 7.71427045E-02-1.07941451E-01-1.12189732E+00-1.17883838E+00
22 13-1.06997210E+00 3.51456010E-02 2.20712831E-04 1.40987466E-02-9.38852726E-02
22 14 6.21083297E-01-7.57536859E-02 2.05011979E-01 9.54460208E-03 4.09660736E-01
22 15-6.61849613E-03-4.08085749E-02-1.29108722E-01-3.47233124E-01-3.19811021E-01
22 16-3.98733741E-01-5.15886933E-02 5.06041829E-02-1.35312614E-01 1.77767646E-01
22 17-1.03314743E+00 1.24148246E-02 1.83929183E-02 8.83821020E-02-4.11508029E-01
22 18 1.60696957E-01-3.74468927E-01 1.72328809E-01 6.85818498E-01 8.48150924E-01
22 19 6.02378489E-01-7.99497001E-02-3.26692725E-04-1.72406298E-02-5.81430181E-02
22 20 2.10608598E-01 1.58355107E-01-2.83615721E-01-5.45970158E-02 2.27327933E-01
22 21 4.08919508E-02-1.88944364E-02 2.12570187E-01-1.21572558E+00-3.24800391E-02
22 22 1.95883016E-02-3.52537012E-03-8.57088923E-01 5.61189531E-02 4.00797953E-02
22 23 1.09177079E-01 8.44268955E-01 7.96331615E-01 7.42982326E-01-2.50415534E-03
22 24-7.80964128E-03 1.65990421E-02 3.19270310E-02-1.54361490E-01-2.27432302E-02
22 25 1.67322739E-01-1.11269615E-01 3.56735463E-01-4.06661317E-02 2.00041215E-01
23  1 8.32430821E-03 6.94584748E-03 2.88329871E-02 1.51031605E-02 2.86158097E-03
23  2-1.29251572E-02-5.59494523E-03-4.76099898E-01 7.63968561E-02-1.75443145E-01
23  3 5.23928101E-02 9.55271921E-02 3.96784683E-02 7.63653354E-02 3.43534900E-02
23  4-1.09980093E-02 1.64036201E-02 9.88308984E-03-9.49559930E-05 1.59325746E-01
23  5-8.96792988E-01 6.21559589E-02-1.85661837E-01 2.68038667E-03-1.14614326E+00
23  6-6.24976067E-02 2.02015553E-01 1.92067090E-02 6.08517498E-01 7.85051410E-01
23  7 5.75931114E-01-7.39846324E-02-2.82633327E-03 2.76747324E-03-1.93779458E-01
23  8 1.13504538E+00 5.79688942E-02-1.76589668E-01-8.77458120E-03 8.66374427E-01
23  9-1.55385289E-01 3.72187384E-01-7.17174587E-02-7.54032826E-01-9.11699350E-01
23 10-7.01594780E-01 8.24987788E-02-1.50525509E-02 5.90254788E-02-8.46333108E-02
23 11 3.72471828E-01-7.91368034E-02 1.43986962E-01-9.92495929E-02 7.71987329E-01
23 12 7.92039863E-02-3.22614268E-01-2.01055446E-01-3.20665358E-01-4.23030501E-01
23 13-2.16785393E-01 6.28868239E-02 1.15336507E-02 3.81610845E-02 2.61496208E-01
23 14-1.48349918E+00-5.06456289E-02 7.10680920E-02-8.80132857E-02-1.66287593E+00
23 15 4.68514651E-02 1.03226845E-01 3.59892480E-01 1.00745045E+00 1.08074650E+00
23 16 1.00327401E+00-4.54287855E-02-1.44756703E-03-1.97285761E-02 3.72102101E-02
23 17-3.23453340E-01 1.00856724E-02-9.47998453E-02-1.29330199E-01 3.81146591E-01
23 18 4.64505570E-02 1.30641017E-01 4.82874651E-01 1.53152096E-01 7.15143498E-02
23 19 2.97650245E-01 1.02936533E-02 5.61750683E-02-7.42272128E-02-2.17751331E-02
23 20 1.50616248E-01 5.86451042E-02 3.05264420E-02-3.77150476E-02 1.33686865E-01
23 21-1.14046523E-01 1.54427954E-01-3.27998380E-01 1.84549285E+00 2.19027659E-02
23 22-2.66901703E-02-5.96643021E-02 1.87931289E+00-4.07019369E-02 9.02793864E-02
23 23 9.01949134E-02-1.27209369E+00-1.20132653E+00-1.30253410E+00 2.39291737E-03
23 24-2.29257940E-02-1.65568429E-02 3.51878836E-02-7.95403473E-02 1.84869966E-02
23 25-2.94076413E-01 1.21332101E-01-4.39534311E-01 4.17739580E-02-2.53855882E-01
24  1 1.71494569E-02-9.15127671E-02-7.14752222E-03 1.04095206E-01 4.45741804E-02
24  2-9.68713616E-02 5.48694384E-02-3.06867009E-01 1.37042933E-01-2.96328117E-01
24  3 5.17458246E-02-1.74658468E-02-1.76851887E-01-9.00624020E-02 1.06643137E-01
24  4-5.95100884E-02 7.23548891E-02 4.45930886E-02-4.89295878E-02-1.24609280E-01
24  5 7.22069360E-01-7.65524494E-02 2.20685386E-01-1.05329044E-02 7.44026889E-01
24  6 2.90234446E-02-7.00194729E-02 4.21038790E-02-4.72235024E-01-7.05175968E-01
24  7-4.71772602E-01 1.01646557E-01-1.13141363E-02 1.47076804E-03 2.56544112E-01
24  8-1.50821247E+00-1.87078238E-02 1.26902582E-01 1.11554920E-01-1.55425337E+00
24  9-4.08691737E-02 1.43306969E-01-1.50639407E-01 9.91634664E-01 1.17997475E+00
24 10 1.10869409E+00-1.15281212E-01 7.42119145E-02-1.01837812E-01-1.97332596E-01
24 11 1.18597875E+00 4.92332588E-02-4.21917835E-02 1.28743705E-01 1.13131834E+00
24 12-6.54940808E-02-4.62961078E-02-2.51004198E-01-7.59011491E-01-7.81514617E-01
24 13-9.26118220E-01 3.17637341E-02-7.59819244E-02 6.21745284E-02-9.84001792E-02
24 14 6.74646705E-01-5.39716694E-02 1.70730231E-01 4.56287522E-02 2.39175032E-01
24 15-9.89261123E-03 1.08365574E-02-1.05391776E-01-3.79036934E-01-4.58404734E-01
24 16-4.25598720E-01 1.38972128E-02 3.03994451E-02-9.17721678E-02 2.27296903E-01
24 17-1.35680150E+00 1.21940789E-02-2.48743929E-02-8.25804737E-03-1.06369218E+00
24 18 2.45742006E-01-3.12713684E-01 7.10348202E-01 8.57591411E-01 1.02924060E+00
24 19 1.08559670E+00-8.55604604E-02 4.27409158E-02 3.34280741E-02 3.88410152E-02
24 20-1.20590544E-01 1.13892844E-01-1.53351734E-01 2.86797065E-02-1.25469161E-01
24 21 4.70860402E-02-2.66590092E-02-2.36471144E-01 1.29527796E+00 3.28951404E-03
24 22-1.29249960E-02-9.16682955E-02 1.91669508E+00-6.42830804E-02 1.54213452E-01
24 23 3.32617675E-01-8.69717151E-01-8.70338501E-01-1.04566949E+00 1.91769268E-02
24 24-4.38720003E-02 4.98609077E-03-1.64985432E-02 2.46721007E-01-3.44560100E-02
24 25-1.51135504E-01 3.90132970E-02-3.76538423E-01 1.47631665E-02-1.46717244E-01
25  1 3.29726381E-02-7.20919149E-02-2.70665916E-02 1.07062137E-01 4.20737979E-02
25  2-8.93053444E-02 4.67032709E-02 6.82456283E-02 6.38508941E-02-1.13842165E-01
25  3 6.97644089E-02-7.15369231E-02-2.12804351E-01-1.55747638E-01 9.32235565E-02
25  4-5.01158702E-02 5.29656480E-02 3.10093977E-02-5.51060331E-02 6.79887980E-02
25  5-3.76426897E-01 3.50289968E-02-1.07120225E-01 4.02397700E-03-7.79525100E-01
25  6-7.25562775E-02 2.15017783E-01-5.17272350E-02 2.48626574E-01 3.76173328E-01
25  7 2.71780315E-01-5.56107281E-02 1.25967838E-02 5.43198394E-03-1.71420455E-01
25  8 9.70538128E-01-1.29080146E-02-6.57364306E-02-1.67957779E-01 1.57255577E+00
25  9-3.66759807E-02 1.25049467E-01 1.59993053E-01-6.47944753E-01-7.23496867E-01
25 10-9.05248473E-01 7.14205442E-02-1.13274318E-01 9.44053123E-02 2.56321962E-01
25 11-1.49790588E+00 6.33516274E-02-1.79119043E-01-2.04229352E-02-2.09859144E+00
25 12-2.75877426E-02 2.04111735E-01 1.84992506E-01 9.93103424E-01 1.24605240E+00
25 13 1.23060051E+00-2.11317911E-01 1.83193419E-01-2.49932464E-01-2.74975027E-01
25 14 1.54558531E+00 8.92100812E-02-1.14491268E-01 1.78985916E-01 2.20850897E+00
25 15-1.42580645E-01 3.79622478E-02-5.32266076E-01-1.03923101E+00-1.54160485E+00
25 16-1.06656321E+00 2.39786142E-01 5.45479285E-03-5.64938840E-02 2.04986336E-01
25 17-1.21012579E+00-3.14550810E-03 6.26762607E-02 8.85103538E-02-1.56096720E+00
25 18 2.14884695E-01-4.66345390E-01 2.33820887E-01 7.48599705E-01 1.02099502E+00
25 19 1.04504004E+00-1.01543241E-01 1.97736604E-02 1.52654547E-01-1.93071918E-02
25 20 5.72041010E-02-1.17611898E-01 3.10959081E-01-7.05748955E-03 4.51174561E-02
25 21 9.56721377E-02-1.43149247E-01-1.18497850E-01 6.77431086E-01-1.49051851E-02
25 22 3.85785015E-05-7.97322127E-02 1.05392979E+00-3.27385380E-03 1.29239836E-01
25 23 1.95033528E-01-4.22718793E-01-4.37452456E-01-6.22567098E-01 2.05961487E-02
25 24-5.00373909E-02 1.73246843E-02 2.74695285E-02-1.81447857E-01-2.12878840E-02
25 25-1.09644228E-01-1.53331896E-03-1.10811089E-01 4.39047520E-03-7.45100798E-02
 $END
   
