SLURM has assigned the following compute nodes to this run:
p0183
Input file supplied : /users/PCON0010/danilk/An-OpenMolcas2023-Inter-Tests/PSB3-CH3-Tests/FRANDOM-1/PSB3-CH3-OpenMolcas/SSR2.2-PSB3-CH3-C8-011.G.tmp.inp
----- GAMESS execution script 'rungms-dev' -----
This job is running on host p0183.ten.osc.edu
under operating system Linux at Fri Jan 20 22:44:33 EST 2023 with sockets communication mode
Available scratch disk space (Kbyte units) at beginning of the job is
Filesystem             1K-blocks     Used Available Use% Mounted on
/dev/mapper/vg0-lv_tmp 858896636 43954112 814942524   6% /tmp
GAMESS temporary binary files will be written to /tmp/slurmtmp.14507555/14507555
GAMESS supplementary output files will be written to /users/PCON0010/danilk/restart
Copying input file SSR2.2-PSB3-CH3-C8-011.G.tmp.inp to your run's scratch directory...
rm /users/PCON0010/danilk/restart/SSR2.2-PSB3-CH3-C8-011.G.tmp.dat
 
Assuming a single but multicore node.
 
The generated host list is
p0183.ten.osc.edu:cpus=12
-----debug-----
the execution path is
/opt/osc/bin /apps/xalt/xalt/bin /apps/python/3.6-conda5.2/bin /opt/mvapich2/intel/2021.3/2.3.6/bin /apps/gnu/10.3.0/bin /opt/intel/2021.3/itac/2021.3.0/bin /opt/intel/2021.3/advisor/2021.3.0/bin64 /opt/intel/2021.3/vtune/2021.5.0/bin64 /opt/intel/2021.3/inspector/2021.3.0/bin64 /opt/intel/2021.3/compiler/2021.3.0/linux/bin /opt/intel/2021.3/compiler/2021.3.0/linux/bin/intel64 /apps/software_usage /usr/lib64/qt-3.3/bin /opt/osc/bin /usr/local/bin /usr/bin /usr/local/sbin /usr/sbin /opt/ibutils/bin /opt/puppetlabs/bin /users/PCON0010/danilk/Apps/OpenMolcas-Interface/OpenMolcas/build /opt/puppetlabs/bin
the library path is
/users/PCON0010/danilk/Apps/OpenMolcas-Interface/OpenMolcas/lib:/apps/python/3.6-conda5.2/lib:/opt/mvapich2/intel/2021.3/2.3.6/lib:/apps/gnu/10.3.0/lib64:/apps/gnu/10.3.0/lib:/opt/intel/2021.3/itac/2021.3.0/slib:/opt/intel/2021.3/debugger/10.1.2/dep/lib:/opt/intel/2021.3/debugger/10.1.2/gdb/intel64/lib:/opt/intel/2021.3/compiler/2021.3.0/linux/lib:/opt/intel/2021.3/compiler/2021.3.0/linux/lib/x64:/opt/intel/2021.3/compiler/2021.3.0/linux/lib/emu:/opt/intel/2021.3/compiler/2021.3.0/linux/compiler/lib/intel64_lin:/opt/intel/2021.3/dal/2021.3.0/lib/intel64:/opt/intel/2021.3/ippcp/2021.3.0/lib/intel64:/opt/intel/2021.3/ipp/2021.3.0/lib/intel64:/opt/intel/2021.3/mkl/2021.3.0/lib/intel64:/opt/intel/2021.3/tbb/2021.3.0/lib/intel64/gcc4.8
The dynamically linked libraries for this binary are
/users/PCON0010/danilk/Apps/gamess-2021-ESPF-REKS-LINK/gamess.01.x :

	linux-vdso.so.1 =>  (0x00007fffdb91e000)
	/apps/xalt/xalt/lib64/libxalt_init.so (0x00007ff120de4000)
	libdl.so.2 => /lib64/libdl.so.2 (0x00007ff120be0000)
	libpthread.so.0 => /lib64/libpthread.so.0 (0x00007ff1209c4000)
	libgfortran.so.5 => /apps/gnu/10.3.0/lib64/libgfortran.so.5 (0x00007ff12050f000)
	libm.so.6 => /lib64/libm.so.6 (0x00007ff12020d000)
	libgcc_s.so.1 => /apps/python/3.6-conda5.2/lib/libgcc_s.so.1 (0x00007ff1211df000)
	libquadmath.so.0 => /apps/python/3.6-conda5.2/lib/libquadmath.so.0 (0x00007ff1211aa000)
	libc.so.6 => /lib64/libc.so.6 (0x00007ff11fe3f000)
	/lib64/ld-linux-x86-64.so.2 (0x00007ff12101f000)
--------------

 Distributed Data Interface kickoff program.
 Initiating 12 compute processes on 1 nodes to run the following command:
 /users/PCON0010/danilk/Apps/gamess-2021-ESPF-REKS-LINK/gamess.01.x SSR2.2-PSB3-CH3-C8-011.G.tmp 

          *******************************************************
          *                                                     *
          *      GAMESS VERSION = 30 SEP 2021 (R2 Patch 1)      *
          *                                                     *
          *              doi.org/10.1063/5.0005188              *
          *                                                     *
          **************** 64 BIT LINUX VERSION *****************

  GAMESS HAS BEEN MADE POSSIBLE WITH IMPORTANT CONTRIBUTIONS FROM
  THE FOLLOWING INDIVIDUALS (IN ALPHABETICAL ORDER):

     IVANA ADAMOVIC, CHRISTINE AIKENS, TOMOKO AKAMA,
     YURI ALEXEEV, YURIKO AOKI, POOJA ARORA, TOSHIO ASADA,
     ANDREY ASADCHEV, YONG SU BAEK, KIM K. BALDRIDGE,
     PRADIPTA BANDYOPADHYAY, TAYLOR A. BARNES, MARIA BARYSZ,
     ROB BELL, JONATHAN BENTZ, COLLEEN BERTONI,
     JERRY A. BOATZ, BRETT BODE, KURT BRORSEN, KURT R. BRORSEN,
     LAIMUTIS BYTAUTAS, CALEB CARLIN, LAURA CARRINGTON,
     GALINA CHABAN, BENOIT CHAMPAGNE, WEI CHEN, MAHITO CHIBA,
     DAN CHIPMAN, CHEOL HO CHOI, TANNER CULPITT,
     DIPAYAN DATTA, PAUL DAY, ALBERT DEFUSCO,
     NUWAN DESILVA, J. EMILIANO DEUSTUA,
     TIM DUDLEY, MICHEL DUPUIS, STEVEN T. ELBERT,
     DMITRI FEDOROV, MICHAEL FILATOV, ALEX FINDLATER,
     GRAHAM FLETCHER, MARK FREITAG, CHRISTIAN FRIEDL,
     DAVID GARMER, IGOR S. GERASIMOV, KURT GLAESEMANN,
     MARK S. GORDON, JEFFREY GOUR, FENG LONG GU,
     EMILIE B. GUIDEZ, ANASTASIA GUNINA, SHARON HAMMES-SCHIFFER,
     MASATAKE HARUTA, KIMIHIKO HIRAO, YASUHIRO IKABATA,
     TZVETELIN IORDANOV, STEPHAN IRLE, KAZUYA ISHIMURA,
     JOE IVANIC, FRANK JENSEN, JAN H. JENSEN, VISVALDAS KAIRYS,
     MUNEAKI KAMIYA, MICHIO KATOUDA, NAOAKI KAWAKAMI, DAN KEMP,
     BERNARD KIRTMAN, KAZUO KITAURA, MARIUSZ KLOBUKOWSKI,
     MASATO KOBAYASHI, KONSTANTIN KOMAROV, PRAKASHAN KORAMBATH,
     JACEK KORCHOWIEC, SHIRO KOSEKI, KAROL KOWALSKI,
     JIMMY KROMANN, STANISLAW KUCHARSKI, HENRY KURTZ,
     SAROM SOK LEANG, SEUNGHOON LEE, HUI LI, SHUHUA LI, WEI LI,
     JESSE LUTZ, ALEKSANDR O. LYKHIN, MARCIN MAKOWSKI,
     JOANI MATO, NIKITA MATSUNAGA, BENEDETTA MENNUCCI,
     GRANT MERRILL, NORIYUKI MINEZAWA, VLADIMIR MIRONOV,
     EISAKU MIYOSHI, JOHN A. MONTGOMERY JR., HIROTOSHI MORI,
     JONATHAN MULLIN, MONIKA MUSIAL, SHIGERU NAGASE,
     TAKESHI NAGATA, HIROMI NAKAI, TAKAHITO NAKAJIMA,
     YUYA NAKAJIMA, HARUYUKI NAKANO, HIROYA NAKATA, SEAN NEDD,
     HEATHER NETZLOFF, KIET A. NGUYEN, YOSHIO NISHIMOTO,
     BOSILJKA NJEGIC, RYAN OLSON, MIKE PAK, ROBERTO PEVERATI,
     BUU PHAM, PIOTR PIECUCH, ANNA POMOGAEVA, DAVID POOLE,
     SPENCER PRUITT, OLIVIER QUINET, LUKE ROSKOP,
     KLAUS RUEDENBERG, ANDREW SAND, TOSAPORN SATTASATHUCHANA,
     NOZOMI SAWADA, MICHAEL W. SCHMIDT, PATRICK E. SCHNEIDER,
     JUNJI SEINO, PRACHI SHARMA, JUN SHEN, JIM SHOEMAKER,
     YINAN SHU, DEJUN SI, JONATHAN SKONE, LYUDMILA SLIPCHENKO,
     TONY SMITH, JIE SONG, MARK SPACKMAN, CASPER STEINMANN,
     WALT STEVENS, PEIFENG SU, SHUJUN SU, CHET SWALINA,
     TETSUYA TAKETSUGU, ZHEN TAO, NANDUN THELLAMUREGE
     SEIKEN TOKURA, JACOPO TOMASI, TSUGUKI TOUMA, TAKAO TSUNEDA,
     HIROAKI UMEDA, JORGE LUIS GALVEZ VALLEJO, YALI WANG,
     SIMON WEBB, AARON WEST, THERESA L. WINDUS, MARTA WLOCH,
     PENG XU, KIYOSHI YAGI, SUSUMU YANAGISAWA, YANG YANG,
     SOOHAENG YOO, TAKESHI YOSHIKAWA, FEDERICO ZAHARIEV,
     TOBY ZENG

  WHO ARE SUPPORTED BY THEIR INSTITUTION/UNIVERSITY/COMPANY/GROUP
  (IN ALPHABETICAL ORDER):

     EP ANALYTICS, FACULTES UNIVERSITAIRES NOTRE-DAME DE LA PAIX,
     INSTITUTE FOR MOLECULAR SCIENCE, IOWA STATE UNIVERSITY,
     JACKSON STATE UNIVERSITY, JOHANNES KEPLER UNIVERSITY LINZ,
     KYUNGPOOK NATIONAL UNIVERSITY
     KYUSHU UNIVERSITY, MICHIGAN STATE UNIVERSITY,
     MIE UNIVERSITY, THE MOLECULAR SCIENCES SOFTWARE INSTITUTE,
     MOSCOW STATE UNIVERSITY,
     N. COPERNICUS UNIVERSITY, NAGOYA UNIVERSITY,
     NANJING UNIVERSITY, NAT. INST. OF ADVANCED INDUSTRIAL
     SCIENCE AND TECHNOLOGY, NATIONAL INST. OF STANDARDS AND
     TECHNOLOGY, NESMEYANOV INSTITUTE OF ORGANOELEMENT COMPOUNDS
     OF RUSSIAN ACADEMY OF SCIENCES, OSAKA PREFECTURE UNIVERSITY,
     PENNSYLVANIA STATE UNIVERSITY, TOKYO INSTITUTE OF TECHNOLOGY,
     UNIVERSITY OF AARHUS, UNIVERSITY OF ALBERTA,
     UNIVERSITY OF CALIFORNIA AT SANTA BARBARA,
     UNIVERSITY OF COPENHAGEN, UNIVERSITY OF IOWA,
     UNIVERSITY OF MEMPHIS, UNIVERSITY OF MINNESOTA,
     UNIVERSITY OF NEBRASKA, UNIVERSITY OF NEW ENGLAND,
     UNIVERSITY OF NOTRE DAME, UNIVERSITY OF PISA,
     UNIVERSITY OF SILESIA, UNIVERSITY OF TOKYO,
     UNIVERSITY OF ZURICH, WASEDA UNIVERSITY, YALE UNIVERSITY

  GAMESS SOFTWARE MANAGEMENT TEAM FOR THIS RELEASE:
     MARK S. GORDON (TEAM LEAD),
     BRETT BODE (SENIOR ADVISOR),
     GIUSEPPE BARCA,
     COLLEEN BERTONI,
     KRISTOPHER KEIPERT (ADVISOR),
     SAROM S. LEANG (DEVELOPMENT LEAD),
     BUU PHAM,
     JORGE LUIS GALVEZ VALLEJO (WEBSITE ADMINISTRATOR),
     PENG XU


 PARALLEL VERSION RUNNING ON       12 PROCESSORS IN        1 NODES.

 EXECUTION OF GAMESS BEGUN 22:44:33 20-JAN-2023    

            ECHO OF THE FIRST FEW INPUT CARDS -
 INPUT CARD> $system timlim=999999100 mwords=500 $end                                       
 INPUT CARD> $contrl scftyp=reks runtyp=gradient                                            
 INPUT CARD>  dfttyp=bhhlyp icharg=+1                                                       
 INPUT CARD>  maxit=200 mult=1                                                              
 INPUT CARD> $end                                                                           
 INPUT CARD> $reks rextype=1 rextarget=                     1 rxcgth=1.0d-06 $end           
 INPUT CARD> $dft nrad=48 nleb=86 $end                                                      
 INPUT CARD> $SCF NCONV=7 $end                                                              
 INPUT CARD> $basis gbasis=n31 ngauss=6 ndfunc=1 $end                                       
 INPUT CARD> $guess guess=moread norb=106 $end                                              
 INPUT CARD> $DATA                                                                          
 INPUT CARD>                                                                                
 INPUT CARD> C1                                                                             
 INPUT CARD>H 1.0	    0.269331732056   -2.895042803051    1.086159742463                    
 INPUT CARD>N 7.0	    0.019738283582   -1.838898005086    0.891065569506                    
 INPUT CARD>H 1.0	   -0.711414748665   -1.668719614857    1.610741752547                    
 INPUT CARD>C 6.0	   -1.907119522540    2.580716246887    0.119942528342                    
 INPUT CARD>C 6.0	   -0.766521527295    2.206605794553   -0.414449651750                    
 INPUT CARD>C 6.0	   -0.377194141906    0.944555640660    0.304937313686                    
 INPUT CARD>C 6.0	    0.599768372792    0.138576536111   -0.223272410540                    
 INPUT CARD>C 6.0	    0.797756120299   -1.280563582642   -0.006003351305                    
 INPUT CARD>H 1.0	   -2.484977043032    3.474911806884    0.066074278890                    
 INPUT CARD>H 1.0	   -1.344183300782    0.191781406287    0.527756848975                    
 INPUT CARD>H 1.0	   -2.253471878638    2.114078814317    1.001188198606                    
 INPUT CARD>H 1.0	    1.467623631529    0.648760128443   -0.805429506431                    
 INPUT CARD>C 6.0	    1.609682485420   -2.205490303930   -0.760296415564                    
 INPUT CARD>H 1.0	   -0.299923141804    2.566026913736   -1.206875620118                    
 INPUT CARD>H 1.0	    2.689736159640   -1.809112428099   -0.940331075486                    
 INPUT CARD>H 1.0	    1.334515990729   -2.251643418569   -1.793379607245                    
 INPUT CARD>H 1.0	    1.634811807633   -3.169723086806   -0.228848460921                    
 INPUT CARD> $END                                                                           
 INPUT CARD> $VEC                                                                           
 INPUT CARD> 1  1 3.42663415E-04-1.62904150E-04 9.93573713E-01 3.09481655E-02 1.17562105E-04
 INPUT CARD> 1  2 1.89590854E-05 3.19195212E-05 1.20318821E-03-3.75139462E-04-9.96194897E-05
 INPUT CARD> 1  3 3.26588806E-04-6.35060833E-03-6.42540955E-03-6.34174550E-03-1.36224960E-06
 INPUT CARD> 1  4-6.90704548E-05 1.52372138E-05 2.14253854E-04-2.60873911E-04-7.64853736E-07
 INPUT CARD> 1  5-5.11532424E-06 1.32615489E-06 1.40592707E-06-1.46018234E-06 8.01434927E-05
 INPUT CARD> 1  6 5.71146296E-05-4.51914396E-05-1.16224509E-05 2.81792751E-06-1.43315374E-06
 INPUT CARD> 1  7 1.60531065E-07-2.11520549E-06-1.76874390E-06-8.70424806E-09 1.61023940E-06
 INPUT CARD> 1  8 1.09269264E-05-2.48138969E-06 3.95010578E-06-1.12298581E-07-1.53185670E-04
 INPUT CARD> 1  9 3.73048695E-05 2.97854385E-05-4.83933229E-05-2.79885563E-06-1.53544231E-06
 INPUT CARD> 1 10 2.69950016E-06 2.86685799E-06 1.52325534E-06 7.74250031E-07-2.95298601E-06
 INPUT CARD> 1 11-1.49786146E-05 1.85190568E-06-7.34119900E-06-5.39953773E-07 4.66954594E-04
 INPUT CARD> 1 12 1.27472982E-04-6.69866017E-05-9.96517042E-05-2.20751331E-06-6.13045945E-06
 INPUT CARD> 1 13-2.45048874E-06-1.91112074E-06 1.28038390E-06 1.44129913E-06 2.95032652E-06
 INPUT CARD> 1 14 4.00556936E-05-7.87125725E-06 2.95825489E-05-8.89100623E-06-7.28111187E-05
 INPUT CARD> 1 15 4.10412237E-04-2.19504307E-04-2.48022698E-04-3.31451073E-06-2.46615900E-05
 INPUT CARD> 1 16-1.97764833E-05-2.28620787E-05 2.57051021E-06 3.73634256E-05 4.40434067E-05
 INPUT CARD> 1 17 2.05533014E-04-1.27335844E-04-8.63611108E-05 1.52115279E-04 3.35560414E-04
 INPUT CARD> 1 18-4.63282736E-04-4.19201947E-04 5.78491298E-04-1.31446204E-05-1.32628971E-05
    500000000 WORDS OF MEMORY AVAILABLE

     BASIS OPTIONS
     -------------
     GBASIS=N31          IGAUSS=       6      POLAR=POPN31  
     NDFUNC=       1     NFFUNC=       0     DIFFSP=       F
     NPFUNC=       0      DIFFS=       F     BASNAM=        


     RUN TITLE
     ---------
                                                                                 

 THE POINT GROUP OF THE MOLECULE IS C1      
 THE ORDER OF THE PRINCIPAL AXIS IS     0

 ATOM      ATOMIC                      COORDINATES (BOHR)
           CHARGE         X                   Y                   Z
 H           1.0     0.5089631734       -5.4708376205        2.0525442921
 N           7.0     0.0372999474       -3.4750133490        1.6838697635
 H           1.0    -1.3443789386       -3.1534228224        3.0438605493
 C           6.0    -3.6039333234        4.8768465587        0.2266585128
 C           6.0    -1.4485156503        4.1698803146       -0.7831962775
 C           6.0    -0.7127935724        1.7849513410        0.5762479663
 C           6.0     1.1333978807        0.2618716816       -0.4219236765
 C           6.0     1.5075404724       -2.4199142810       -0.0113446890
 H           1.0    -4.6959256971        6.5666311465        0.1248622819
 H           1.0    -2.5401381157        0.3624143074        0.9973158327
 H           1.0    -4.2584443717        3.9950296755        1.8919713575
 H           1.0     2.7734065167        1.2259788745       -1.5220410696
 C           6.0     3.0418588247       -4.1677723430       -1.4367518949
 H           1.0    -0.5667725554        4.8490877441       -2.2806642233
 H           1.0     5.0828643210       -3.4187267701       -1.7769680704
 H           1.0     2.5218695487       -4.2549890832       -3.3889960497
 H           1.0     3.0893463579       -5.9899080910       -0.4324608839

          INTERNUCLEAR DISTANCES (ANGS.)
          ------------------------------

                1 H          2 N          3 H          4 C          5 C     

   1 H       0.0000000    1.1026334 *  1.6555720 *  5.9711350    5.4177153  
   2 N       1.1026334 *  0.0000000    1.0399419 *  4.8826634    4.3230401  
   3 H       1.6555720 *  1.0399419 *  0.0000000    4.6593881    4.3729377  
   4 C       5.9711350    4.8826634    4.6593881    0.0000000    1.3139625 *
   5 C       5.4177153    4.3230401    4.3729377    1.3139625 *  0.0000000  
   6 C       3.9712492    2.8720578 *  2.9404143 *  2.2476468 *  1.5039495 *
   7 C       3.3206396    2.3427739 *  2.8894859 *  3.5165793    2.4859690 *
   8 C       2.0195533 *  1.3121668 *  2.2454680 *  4.7161103    3.8437148  
   9 H       7.0144931    5.9321821    5.6558346    1.0660238 *  2.1891991 *
  10 H       3.5275669    2.4730415 *  2.2438174 *  2.4880151 *  2.2980347 *
  11 H       5.6091940    4.5613197    4.1302615    1.0556062 *  2.0551431 *
  12 H       4.1919629    3.3410942    3.9945969    3.9972064    2.7515728 *
  13 C       2.3835736 *  2.3214885 *  3.3611660    6.0042060    5.0232009  
  14 H       5.9502390    4.8894687    5.1030747    2.0841647 *  0.9873381 *
  15 H       3.3383031    3.2378681    4.2538818    6.4440560    5.3243085  
  16 H       3.1369296    3.0174899    4.0141842    6.1254145    5.1177918  
  17 H       1.9155239 *  2.3735554 *  3.3379459    6.7627276    5.8911596  

                6 C          7 C          8 C          9 H         10 H     

   1 H       3.9712492    3.3206396    2.0195533 *  7.0144931    3.5275669  
   2 N       2.8720578 *  2.3427739 *  1.3121668 *  5.9321821    2.4730415 *
   3 H       2.9404143 *  2.8894859 *  2.2454680 *  5.6558346    2.2438174 *
   4 C       2.2476468 *  3.5165793    4.7161103    1.0660238 *  2.4880151 *
   5 C       1.5039495 *  2.4859690 *  3.8437148    2.1891991 *  2.2980347 *
   6 C       0.0000000    1.3722476 *  2.5354187 *  3.3018944    1.2455463 *
   7 C       1.3722476 *  0.0000000    1.4492631 *  4.5530769    2.0846640 *
   8 C       2.5354187 *  1.4492631 *  0.0000000    5.7789340    2.6534137 *
   9 H       3.3018944    4.5530769    5.7789340    0.0000000    3.5062097  
  10 H       1.2455463 *  2.0846640 *  2.6534137 *  3.5062097    0.0000000  
  11 H       2.3179663 *  3.6800670    4.6741870    1.6673029 *  2.1785707 *
  12 H       2.1734217 *  1.1629131 *  2.1931928 *  4.9365681    3.1452303  
  13 C       3.8736535    2.6082505 *  1.4434929 *  7.0509640    4.0163810  
  14 H       2.2182692 *  2.7693746 *  4.1765120    2.6871795 *  3.1203318  
  15 H       4.3057453    2.9454424 *  2.1752978 *  7.4640083    4.7361761  
  16 H       4.1891018    2.9526669 *  2.1037636 *  7.1301845    4.3050469  
  17 H       4.6108985    3.4664380    2.0782795 *  7.8237339    4.5548409  

               11 H         12 H         13 C         14 H         15 H     

   1 H       5.6091940    4.1919629    2.3835736 *  5.9502390    3.3383031  
   2 N       4.5613197    3.3410942    2.3214885 *  4.8894687    3.2378681  
   3 H       4.1302615    3.9945969    3.3611660    5.1030747    4.2538818  
   4 C       1.0556062 *  3.9972064    6.0042060    2.0841647 *  6.4440560  
   5 C       2.0551431 *  2.7515728 *  5.0232009    0.9873381 *  5.3243085  
   6 C       2.3179663 *  2.1734217 *  3.8736535    2.2182692 *  4.3057453  
   7 C       3.6800670    1.1629131 *  2.6082505 *  2.7693746 *  2.9454424 *
   8 C       4.6741870    2.1931928 *  1.4434929 *  4.1765120    2.1752978 *
   9 H       1.6673029 *  4.9365681    7.0509640    2.6871795 *  7.4640083  
  10 H       2.1785707 *  3.1452303    4.0163810    3.1203318    4.7361761  
  11 H       0.0000000    4.3883457    6.0568529    2.9826424 *  6.6027443  
  12 H       4.3883457    0.0000000    2.8581398 *  2.6384261 *  2.7482531 *
  13 C       6.0568529    2.8581398 *  0.0000000    5.1588180    1.1644930 *
  14 H       2.9826424 *  2.6384261 *  5.1588180    0.0000000    5.3057472  
  15 H       6.6027443    2.7482531 *  1.1644930 *  5.3057472    0.0000000  
  16 H       6.3041888    3.0669372    1.0700970 *  5.1210668    1.6613691 *
  17 H       6.6746013    3.8653864    1.1012780 *  6.1317668    1.8628833 *

               16 H         17 H     

   1 H       3.1369296    1.9155239 *
   2 N       3.0174899    2.3735554 *
   3 H       4.0141842    3.3379459  
   4 C       6.1254145    6.7627276  
   5 C       5.1177918    5.8911596  
   6 C       4.1891018    4.6108985  
   7 C       2.9526669 *  3.4664380  
   8 C       2.1037636 *  2.0782795 *
   9 H       7.1301845    7.8237339  
  10 H       4.3050469    4.5548409  
  11 H       6.3041888    6.6746013  
  12 H       3.0669372    3.8653864  
  13 C       1.0700970 *  1.1012780 *
  14 H       5.1210668    6.1317668  
  15 H       1.6613691 *  1.8628833 *
  16 H       0.0000000    1.8386967 *
  17 H       1.8386967 *  0.0000000  

  * ... LESS THAN  3.000


     ATOMIC BASIS SET
     ----------------
 THE CONTRACTED PRIMITIVE FUNCTIONS HAVE BEEN UNNORMALIZED
 THE CONTRACTED BASIS FUNCTIONS ARE NOW NORMALIZED TO UNITY

  SHELL TYPE  PRIMITIVE        EXPONENT          CONTRACTION COEFFICIENT(S)

 H         

      1   S       1            18.7311370    0.033494604338
      1   S       2             2.8253944    0.234726953484
      1   S       3             0.6401217    0.813757326146

      2   S       4             0.1612778    1.000000000000

 N         

      3   S       5          4173.5114600    0.001834772160
      3   S       6           627.4579110    0.013994627002
      3   S       7           142.9020930    0.068586551812
      3   S       8            40.2343293    0.232240873040
      3   S       9            12.8202129    0.469069948082
      3   S      10             4.3904370    0.360455199063

      4   L      11            11.6263619   -0.114961181702    0.067579743878
      4   L      12             2.7162798   -0.169117478561    0.323907295893
      4   L      13             0.7722184    1.145851947027    0.740895139755

      5   L      14             0.2120315    1.000000000000    1.000000000000

      6   D      15             0.8000000    1.000000000000

 H         

      7   S      16            18.7311370    0.033494604338
      7   S      17             2.8253944    0.234726953484
      7   S      18             0.6401217    0.813757326146

      8   S      19             0.1612778    1.000000000000

 C         

      9   S      20          3047.5248800    0.001834737132
      9   S      21           457.3695180    0.014037322813
      9   S      22           103.9486850    0.068842622264
      9   S      23            29.2101553    0.232184443216
      9   S      24             9.2866630    0.467941348435
      9   S      25             3.1639270    0.362311985337

     10   L      26             7.8682723   -0.119332419775    0.068999066591
     10   L      27             1.8812885   -0.160854151696    0.316423960957
     10   L      28             0.5442493    1.143456437840    0.744308290898

     11   L      29             0.1687145    1.000000000000    1.000000000000

     12   D      30             0.8000000    1.000000000000

 C         

     13   S      31          3047.5248800    0.001834737132
     13   S      32           457.3695180    0.014037322813
     13   S      33           103.9486850    0.068842622264
     13   S      34            29.2101553    0.232184443216
     13   S      35             9.2866630    0.467941348435
     13   S      36             3.1639270    0.362311985337

     14   L      37             7.8682723   -0.119332419775    0.068999066591
     14   L      38             1.8812885   -0.160854151696    0.316423960957
     14   L      39             0.5442493    1.143456437840    0.744308290898

     15   L      40             0.1687145    1.000000000000    1.000000000000

     16   D      41             0.8000000    1.000000000000

 C         

     17   S      42          3047.5248800    0.001834737132
     17   S      43           457.3695180    0.014037322813
     17   S      44           103.9486850    0.068842622264
     17   S      45            29.2101553    0.232184443216
     17   S      46             9.2866630    0.467941348435
     17   S      47             3.1639270    0.362311985337

     18   L      48             7.8682723   -0.119332419775    0.068999066591
     18   L      49             1.8812885   -0.160854151696    0.316423960957
     18   L      50             0.5442493    1.143456437840    0.744308290898

     19   L      51             0.1687145    1.000000000000    1.000000000000

     20   D      52             0.8000000    1.000000000000

 C         

     21   S      53          3047.5248800    0.001834737132
     21   S      54           457.3695180    0.014037322813
     21   S      55           103.9486850    0.068842622264
     21   S      56            29.2101553    0.232184443216
     21   S      57             9.2866630    0.467941348435
     21   S      58             3.1639270    0.362311985337

     22   L      59             7.8682723   -0.119332419775    0.068999066591
     22   L      60             1.8812885   -0.160854151696    0.316423960957
     22   L      61             0.5442493    1.143456437840    0.744308290898

     23   L      62             0.1687145    1.000000000000    1.000000000000

     24   D      63             0.8000000    1.000000000000

 C         

     25   S      64          3047.5248800    0.001834737132
     25   S      65           457.3695180    0.014037322813
     25   S      66           103.9486850    0.068842622264
     25   S      67            29.2101553    0.232184443216
     25   S      68             9.2866630    0.467941348435
     25   S      69             3.1639270    0.362311985337

     26   L      70             7.8682723   -0.119332419775    0.068999066591
     26   L      71             1.8812885   -0.160854151696    0.316423960957
     26   L      72             0.5442493    1.143456437840    0.744308290898

     27   L      73             0.1687145    1.000000000000    1.000000000000

     28   D      74             0.8000000    1.000000000000

 H         

     29   S      75            18.7311370    0.033494604338
     29   S      76             2.8253944    0.234726953484
     29   S      77             0.6401217    0.813757326146

     30   S      78             0.1612778    1.000000000000

 H         

     31   S      79            18.7311370    0.033494604338
     31   S      80             2.8253944    0.234726953484
     31   S      81             0.6401217    0.813757326146

     32   S      82             0.1612778    1.000000000000

 H         

     33   S      83            18.7311370    0.033494604338
     33   S      84             2.8253944    0.234726953484
     33   S      85             0.6401217    0.813757326146

     34   S      86             0.1612778    1.000000000000

 H         

     35   S      87            18.7311370    0.033494604338
     35   S      88             2.8253944    0.234726953484
     35   S      89             0.6401217    0.813757326146

     36   S      90             0.1612778    1.000000000000

 C         

     37   S      91          3047.5248800    0.001834737132
     37   S      92           457.3695180    0.014037322813
     37   S      93           103.9486850    0.068842622264
     37   S      94            29.2101553    0.232184443216
     37   S      95             9.2866630    0.467941348435
     37   S      96             3.1639270    0.362311985337

     38   L      97             7.8682723   -0.119332419775    0.068999066591
     38   L      98             1.8812885   -0.160854151696    0.316423960957
     38   L      99             0.5442493    1.143456437840    0.744308290898

     39   L     100             0.1687145    1.000000000000    1.000000000000

     40   D     101             0.8000000    1.000000000000

 H         

     41   S     102            18.7311370    0.033494604338
     41   S     103             2.8253944    0.234726953484
     41   S     104             0.6401217    0.813757326146

     42   S     105             0.1612778    1.000000000000

 H         

     43   S     106            18.7311370    0.033494604338
     43   S     107             2.8253944    0.234726953484
     43   S     108             0.6401217    0.813757326146

     44   S     109             0.1612778    1.000000000000

 H         

     45   S     110            18.7311370    0.033494604338
     45   S     111             2.8253944    0.234726953484
     45   S     112             0.6401217    0.813757326146

     46   S     113             0.1612778    1.000000000000

 H         

     47   S     114            18.7311370    0.033494604338
     47   S     115             2.8253944    0.234726953484
     47   S     116             0.6401217    0.813757326146

     48   S     117             0.1612778    1.000000000000

 TOTAL NUMBER OF BASIS SET SHELLS             =   48
 NUMBER OF CARTESIAN GAUSSIAN BASIS FUNCTIONS =  125
 NUMBER OF ELECTRONS                          =   52
 CHARGE OF MOLECULE                           =    1
 SPIN MULTIPLICITY                            =    1
 NUMBER OF OCCUPIED ORBITALS (ALPHA)          =   26
 NUMBER OF OCCUPIED ORBITALS (BETA )          =   26
 TOTAL NUMBER OF ATOMS                        =   17
 THE NUCLEAR REPULSION ENERGY IS      275.1033751236

 SELECTED MURRAY-HANDY-LAMING RADIAL GRID

 LEGACY BECKE'S FUZZY CELL METHOD

 SELECTED ORIGINAL BECKE'S PARTITION FUNCTION

     LEBEDEV GRID-BASED DFT OPTIONS
     ------------------------------
     DFTTYP=BHHLYP  
     NRAD  =      48     NLEB  =      86
     NRAD0 =      24     NLEB0 =      86
     SWOFF =    5.00E-03 (PURE SCF -> DFT)
     SWITCH=    3.00E-04 (COARSE -> TIGHT GRID)
     THRESH=    0.00E+00 GTHRE=    1.00E+00

 GRIMME'S EMPIRICAL DISPERSION CORRECTION= F

     $CONTRL OPTIONS
     ---------------
 SCFTYP=REKS         RUNTYP=GRADIENT     EXETYP=RUN     
 MPLEVL=       0     CITYP =NONE         CCTYP =NONE         VBTYP =NONE    
 DFTTYP=BHHLYP       TDDFT =NONE    
 MULT  =       1     ICHARG=       1     NZVAR =       0     COORD =UNIQUE  
 PP    =NONE         RELWFN=NONE         LOCAL =NONE         NUMGRD=       F
 ISPHER=      -1     NOSYM =       0     MAXIT =     200     UNITS =ANGS    
 PLTORB=       F     MOLPLT=       F     AIMPAC=       F     FRIEND=        
 NPRINT=       7     IREST =       0     GEOM  =INPUT   
 NORMF =       0     NORMP =       0     ITOL  =      20     ICUT  =       9
 INTTYP=BEST         GRDTYP=BEST         QMTTOL= 1.0E-06

     $SYSTEM OPTIONS
     ---------------
  REPLICATED MEMORY=   500000000 WORDS (ON EVERY NODE).
 DISTRIBUTED MEMDDI=           0 MILLION WORDS IN AGGREGATE,
 MEMDDI DISTRIBUTED OVER  12 PROCESSORS IS           0 WORDS/PROCESSOR.
 TOTAL MEMORY REQUESTED ON EACH PROCESSOR=   500000000 WORDS.
 TIMLIM=   999999100.00 MINUTES, OR  694443.8 DAYS.
 PARALL= T  BALTYP=  DLB     KDIAG=    0  COREFL= F
 MXSEQ2=     300 MXSEQ3=     150  mem10=         0  mem22=         0

          ----------------
          PROPERTIES INPUT
          ----------------

     MOMENTS            FIELD           POTENTIAL          DENSITY
 IEMOM =       1   IEFLD =       0   IEPOT =       0   IEDEN =       0
 WHERE =COMASS     WHERE =NUCLEI     WHERE =NUCLEI     WHERE =NUCLEI  
 OUTPUT=BOTH       OUTPUT=BOTH       OUTPUT=BOTH       OUTPUT=BOTH    
 IEMINT=       0   IEFINT=       0                     IEDINT=       0
                                                       MORB  =       0
          EXTRAPOLATION IN EFFECT
          DIIS IN EFFECT
 ORBITAL PRINTING OPTION: NPREO=     1   125     2     1

 =====> REKS control string found <=====
  $REKS REXTYPE=1 REXTARGET=                     1 RXCGTH=1.0D-06 $END

 ======> set rexType to   1
 ======> set rexTarget to   1
 ======> set RXCGTH to    0.00000100

 =====> End of REKS control string <=====

     -------------------------------
     INTEGRAL TRANSFORMATION OPTIONS
     -------------------------------
     NWORD  =            0
     CUTOFF = 1.0E-09     MPTRAN =       0
     DIRTRF =       F     AOINTS =DUP     

          ----------------------
          INTEGRAL INPUT OPTIONS
          ----------------------
 NOPK  =       1 NORDER=       0 SCHWRZ=       T

     ------------------------------------------
     THE POINT GROUP IS C1 , NAXIS= 0, ORDER= 1
     ------------------------------------------

     DIMENSIONS OF THE SYMMETRY SUBSPACES ARE
 A   =  125

 ..... DONE SETTING UP THE RUN .....
 CPU     0: STEP CPU TIME=     0.15 TOTAL CPU TIME=          0.2 (      0.0 MIN)
 TOTAL WALL CLOCK TIME=          0.2 SECONDS, CPU UTILIZATION IS    97.46%

                    --------------------------------
                    SINGLE POINT ENERGY AND GRADIENT
                    --------------------------------

          ********************
          1 ELECTRON INTEGRALS
          ********************
 ...... END OF ONE-ELECTRON INTEGRALS ......
 CPU     0: STEP CPU TIME=     0.00 TOTAL CPU TIME=          0.2 (      0.0 MIN)
 TOTAL WALL CLOCK TIME=          0.2 SECONDS, CPU UTILIZATION IS    97.20%

          -------------
          GUESS OPTIONS
          -------------
          GUESS =MOREAD            NORB  =     106          NORDER=       0
          MIX   =       F          PRTMO =       F          PUNMO =       F
          TOLZ  = 1.0E-08          TOLE  = 1.0E-05
          SYMDEN=       F          PURIFY=       F

 INITIAL GUESS ORBITALS GENERATED BY MOREAD   ROUTINE.

 SYMMETRIES FOR INITIAL GUESS ORBITALS FOLLOW.   BOTH SET(S).
    26 ORBITALS ARE OCCUPIED (    7 CORE ORBITALS).
     1=A        2=A        3=A        4=A        5=A        6=A        7=A   
     8=A        9=A       10=A       11=A       12=A       13=A       14=A   
    15=A       16=A       17=A       18=A       19=A       20=A       21=A   
    22=A       23=A       24=A       25=A       26=A       27=A       28=A   
    29=A       30=A       31=A       32=A       33=A       34=A       35=A   
    36=A       37=A       38=A       39=A       40=A       41=A       42=A   
    43=A       44=A       45=A       46=A       47=A       48=A       49=A   
    50=A       51=A       52=A       53=A       54=A       55=A       56=A   
    57=A       58=A       59=A       60=A       61=A       62=A       63=A   
    64=A       65=A       66=A       67=A       68=A       69=A       70=A   
    71=A       72=A       73=A       74=A       75=A       76=A       77=A   
    78=A       79=A       80=A       81=A       82=A       83=A       84=A   
    85=A       86=A       87=A       88=A       89=A       90=A       91=A   
    92=A       93=A       94=A       95=A       96=A       97=A       98=A   
    99=A      100=A      101=A      102=A      103=A      104=A      105=A   
   106=A      107=A      108=A      109=A      110=A      111=A      112=A   
   113=A      114=A      115=A      116=A      117=A      118=A      119=A   
   120=A      121=A      122=A      123=A      124=A      125=A   
 ...... END OF INITIAL ORBITAL SELECTION ......
 CPU     0: STEP CPU TIME=     0.02 TOTAL CPU TIME=          0.2 (      0.0 MIN)
 TOTAL WALL CLOCK TIME=          0.2 SECONDS, CPU UTILIZATION IS    97.45%

                    ----------------------
                    AO INTEGRAL TECHNOLOGY
                    ----------------------
     S,P,L SHELL ROTATED AXIS INTEGRALS, REPROGRAMMED BY
        KAZUYA ISHIMURA (IMS) AND JOSE SIERRA (SYNSTAR).
     S,P,D,L SHELL ROTATED AXIS INTEGRALS PROGRAMMED BY
        KAZUYA ISHIMURA (INSTITUTE FOR MOLECULAR SCIENCE).
     S,P,D,F,G SHELL TO TOTAL QUARTET ANGULAR MOMENTUM SUM 5,
        ERIC PROGRAM BY GRAHAM FLETCHER (ELORET AND NASA ADVANCED
        SUPERCOMPUTING DIVISION, AMES RESEARCH CENTER).
     S,P,D,F,G,L SHELL GENERAL RYS QUADRATURE PROGRAMMED BY
        MICHEL DUPUIS (PACIFIC NORTHWEST NATIONAL LABORATORY).

          --------------------
          2 ELECTRON INTEGRALS
          --------------------

 THE -PK- OPTION IS OFF, THE INTEGRALS ARE NOT IN SUPERMATRIX FORM.
 STORING   15000 INTEGRALS/RECORD ON DISK, USING 12 BYTES/INTEGRAL.
 TWO ELECTRON INTEGRAL EVALUATION REQUIRES   91572 WORDS OF MEMORY.
 SCHWARZ INEQUALITY OVERHEAD:      7575 INTEGRALS, T=        0.00
 II,JST,KST,LST =  1  1  1  1 NREC =         1 INTLOC =    1
 II,JST,KST,LST =  2  1  1  1 NREC =         1 INTLOC =    1
 II,JST,KST,LST =  3  1  1  1 NREC =         1 INTLOC =    1
 II,JST,KST,LST =  4  1  1  1 NREC =         1 INTLOC =    1
 II,JST,KST,LST =  5  1  1  1 NREC =         1 INTLOC =    1
 II,JST,KST,LST =  6  1  1  1 NREC =         1 INTLOC =    1
 II,JST,KST,LST =  7  1  1  1 NREC =         1 INTLOC =   31
 II,JST,KST,LST =  8  1  1  1 NREC =         1 INTLOC =  561
 II,JST,KST,LST =  9  1  1  1 NREC =         1 INTLOC =  561
 II,JST,KST,LST = 10  1  1  1 NREC =         1 INTLOC =  599
 II,JST,KST,LST = 11  1  1  1 NREC =         1 INTLOC = 1889
 II,JST,KST,LST = 12  1  1  1 NREC =         1 INTLOC = 1889
 II,JST,KST,LST = 13  1  1  1 NREC =         1 INTLOC =12291
 II,JST,KST,LST = 14  1  1  1 NREC =         1 INTLOC =12291
 II,JST,KST,LST = 15  1  1  1 NREC =         1 INTLOC =12291
 II,JST,KST,LST = 16  1  1  1 NREC =         3 INTLOC =  663
 II,JST,KST,LST = 17  1  1  1 NREC =         3 INTLOC =  663
 II,JST,KST,LST = 18  1  1  1 NREC =         3 INTLOC =11804
 II,JST,KST,LST = 19  1  1  1 NREC =         3 INTLOC =11804
 II,JST,KST,LST = 20  1  1  1 NREC =         5 INTLOC =12810
 II,JST,KST,LST = 21  1  1  1 NREC =        13 INTLOC = 1658
 II,JST,KST,LST = 22  1  1  1 NREC =        13 INTLOC = 1658
 II,JST,KST,LST = 23  1  1  1 NREC =        13 INTLOC = 1658
 II,JST,KST,LST = 24  1  1  1 NREC =        22 INTLOC =13156
 II,JST,KST,LST = 25  1  1  1 NREC =        22 INTLOC =13156
 II,JST,KST,LST = 26  1  1  1 NREC =        25 INTLOC =13321
 II,JST,KST,LST = 27  1  1  1 NREC =        32 INTLOC = 8079
 II,JST,KST,LST = 28  1  1  1 NREC =        34 INTLOC = 5038
 II,JST,KST,LST = 29  1  1  1 NREC =        49 INTLOC = 4062
 II,JST,KST,LST = 30  1  1  1 NREC =        49 INTLOC = 4062
 II,JST,KST,LST = 31  1  1  1 NREC =        49 INTLOC = 4062
 II,JST,KST,LST = 32  1  1  1 NREC =        50 INTLOC = 3162
 II,JST,KST,LST = 33  1  1  1 NREC =        53 INTLOC = 7418
 II,JST,KST,LST = 34  1  1  1 NREC =        55 INTLOC = 1891
 II,JST,KST,LST = 35  1  1  1 NREC =        57 INTLOC =  536
 II,JST,KST,LST = 36  1  1  1 NREC =        59 INTLOC = 3256
 II,JST,KST,LST = 37  1  1  1 NREC =        62 INTLOC = 6392
 II,JST,KST,LST = 38  1  1  1 NREC =        63 INTLOC =10839
 II,JST,KST,LST = 39  1  1  1 NREC =        70 INTLOC = 6223
 II,JST,KST,LST = 40  1  1  1 NREC =        83 INTLOC = 6619
 II,JST,KST,LST = 41  1  1  1 NREC =        87 INTLOC = 6897
 II,JST,KST,LST = 42  1  1  1 NREC =        91 INTLOC =  698
 II,JST,KST,LST = 43  1  1  1 NREC =        95 INTLOC = 8789
 II,JST,KST,LST = 44  1  1  1 NREC =        99 INTLOC = 4349
 II,JST,KST,LST = 45  1  1  1 NREC =       105 INTLOC = 1099
 II,JST,KST,LST = 46  1  1  1 NREC =       105 INTLOC = 1099
 II,JST,KST,LST = 47  1  1  1 NREC =       110 INTLOC = 5156
 II,JST,KST,LST = 48  1  1  1 NREC =       112 INTLOC = 3221
 SCHWARZ INEQUALITY TEST SKIPPED      255428 INTEGRAL BLOCKS.
 TOTAL NUMBER OF NONZERO TWO-ELECTRON INTEGRALS =            20180800
       1354 INTEGRAL RECORDS WERE STORED ON DISK FILE  8.
  ...... END OF TWO-ELECTRON INTEGRALS .....
 CPU     0: STEP CPU TIME=     0.11 TOTAL CPU TIME=          0.3 (      0.0 MIN)
 TOTAL WALL CLOCK TIME=          0.3 SECONDS, CPU UTILIZATION IS    97.30%

 ================================================================================

          Performing a 2SI-2SA-REKS(2,2) calculation for the S0 state

          Weights: WPPS =    0.500000, WOSS =    0.500000

          Applying 0.300 orbital eigenvalue shift, using DIIS

 ================================================================================

          -------------------
          SA-REKS(2,2)-BHHLYP
          -------------------

     NUCLEAR ENERGY =       275.1033751236
     MAXIT =200     NPUNCH=  2     MULT=  1
     EXTRAP=F  DAMP=F  SHIFT=T  RSTRCT=F  DIIS=T  SOSCF=F
         DENSITY MATRIX CONVERGENCE THRESHOLD=  1.00E-07
            FOCK MATRIX CONVERGENCE THRESHOLD=  1.00E-07
     COARSE -> FINE DFT GRID SWITCH THRESHOLD=  3.00E-04 (SWITCH IN $DFT)
                   HF -> DFT SWITCH THRESHOLD=  0.00E+00 (SWOFF IN $DFT)
     MEMORY REQUIRED FOR REKS ITERS=    650861 WORDS.

 DFT CODE IS SWITCHING FROM THE FINE GRID NRAD= 48,  NLEB=   86
                      TO THE COARSE GRID NRAD0= 24, NLEB0=   86

     EXCHANGE FUNCTIONAL   =B88&HFX   
     CORRELATION FUNCTIONAL=LYP88     
     DFT THRESHOLD         =.285E-07
     GRID CHANGE THRESHOLD =.300E-03
 FOR AN EULER-MACLAURIN QUADRATURE USING  48 RADIAL POINTS:
 SMALLEST GAUSSIAN PRIMITIVE EXPONENT=        0.1612777588 OF TYPE -S-
 ON ATOM NUMBER   1 HAS RADIAL NORMALIZATION=  1.000000
  LARGEST GAUSSIAN PRIMITIVE EXPONENT=     4173.5114600000 OF TYPE -S-
 ON ATOM NUMBER   2 HAS RADIAL NORMALIZATION=  1.000000
 ====================================================================================================================

 ITER EX     NR/2           TOTAL ENERGY    OFFDIAG FOCK      E CHANGE    DENSITY CHANGE  DIIS ERROR     VIR. SHIFT

 ====================================================================================================================
          * * *   INITIATING DIIS PROCEDURE   * * *
   1  0   0.999976492     -288.7603506453   0.006367525  -288.7603506453   0.009717058   0.005902764     0.300000000
   2  1   0.999973239     -288.7646815790   0.002974283    -0.0043309337   0.002583491   0.002310962     0.300000000
   3  2   0.999977261     -288.7655549714   0.002017934    -0.0008733924   0.001258808   0.001713101     0.300000000
   4  3   0.999977556     -288.7658537915   0.001294624    -0.0002988201   0.000915151   0.000876568     0.300000000
   5  4   0.999978152     -288.7659526212   0.000777833    -0.0000988297   0.000661095   0.000632764     0.300000000
   6  5   0.999978754     -288.7659895635   0.000561998    -0.0000369423   0.000450113   0.000425993     0.300000000
   7  6   0.999979166     -288.7660045293   0.000498445    -0.0000149659   0.000299674   0.000301519     0.300000000
 DFT CODE IS SWITCHING BACK TO THE FINE GRID
          * * *   INITIATING DIIS PROCEDURE   * * *
   8  7   0.999979428     -288.7641766270   0.000414729     0.0018279023   0.000530117   0.000324377     0.300000000
   9  8   0.999979697     -288.7641836365   0.000359855    -0.0000070095   0.000199279   0.000134811     0.300000000
  10  9   0.999979903     -288.7641858224   0.000276625    -0.0000021859   0.000102399   0.000102660     0.300000000
  11 10   0.999980042     -288.7641868347   0.000250187    -0.0000010123   0.000085806   0.000074031     0.300000000
  12 11   0.999980179     -288.7641873897   0.000191914    -0.0000005551   0.000075106   0.000054822     0.300000000
  13 12   0.999980271     -288.7641877137   0.000161647    -0.0000003240   0.000059011   0.000037776     0.300000000
  14 13   0.999980360     -288.7641878992   0.000127716    -0.0000001854   0.000046470   0.000026643     0.300000000
  15 14   0.999980422     -288.7641880070   0.000106099    -0.0000001078   0.000036911   0.000019907     0.300000000
  16 15   0.999980478     -288.7641880672   0.000082879    -0.0000000603   0.000028213   0.000015048     0.300000000
  17 16   0.999980518     -288.7641881015   0.000070279    -0.0000000343   0.000022344   0.000011404     0.300000000
  18 17   0.999980552     -288.7641881212   0.000056027    -0.0000000197   0.000017412   0.000008571     0.300000000
  19 18   0.999980579     -288.7641881325   0.000044957    -0.0000000113   0.000013277   0.000006408     0.300000000
  20 19   0.999980602     -288.7641881390   0.000035354    -0.0000000065   0.000010145   0.000004791     0.300000000
  21 20   0.999980619     -288.7641881427   0.000027932    -0.0000000037   0.000007812   0.000003566     0.300000000
  22 21   0.999980632     -288.7641881448   0.000022623    -0.0000000021   0.000005902   0.000002675     0.300000000
  23 22   0.999980643     -288.7641881460   0.000017658    -0.0000000012   0.000004572   0.000001982     0.300000000
  24 23   0.999980651     -288.7641881467   0.000014041    -0.0000000007   0.000003439   0.000001547     0.300000000
  25 24   0.999980658     -288.7641881471   0.000011283    -0.0000000004   0.000002560   0.000001331     0.300000000
  26 25   0.999980663     -288.7641881473   0.000008886    -0.0000000002   0.000001915   0.000001099     0.300000000
  27 26   0.999980667     -288.7641881475   0.000006937    -0.0000000001   0.000001375   0.000000888     0.300000000
  28 27   0.999980670     -288.7641881475   0.000005443    -0.0000000001   0.000000987   0.000000723     0.300000000
  29 28   0.999980672     -288.7641881476   0.000004218    -0.0000000000   0.000000749   0.000000575     0.300000000
  30 29   0.999980674     -288.7641881476   0.000003288    -0.0000000000   0.000000572   0.000000458     0.300000000
  31 30   0.999980675     -288.7641881476   0.000002518    -0.0000000000   0.000000440   0.000000354     0.300000000
  32 31   0.999980676     -288.7641881476   0.000001935    -0.0000000000   0.000000336   0.000000274     0.300000000
  33 32   0.999980677     -288.7641881476   0.000001482    -0.0000000000   0.000000255   0.000000211     0.300000000
  34 33   0.999980677     -288.7641881476   0.000001151    -0.0000000000   0.000000206   0.000000166     0.300000000
  35 34   0.999980678     -288.7641881476   0.000000910    -0.0000000000   0.000000168   0.000000134     0.300000000
  36 35   0.999980678     -288.7641881476   0.000000735     0.0000000000   0.000000118   0.000000113     0.300000000
  37 36   0.999980679     -288.7641881476   0.000000586    -0.0000000000   0.000000101   0.000000093     0.300000000
  38 37   0.999980679     -288.7641881476   0.000000467    -0.0000000000   0.000000073   0.000000076     0.300000000

          -----------------
          DENSITY CONVERGED
          -----------------
     TIME TO FORM FOCK OPERATORS=      18.6 SECONDS (       0.5 SEC/ITER)
     TIME TO SOLVE SCF EQUATIONS=       0.2 SECONDS (       0.0 SEC/ITER)

 FINAL SA-REKS(2,2)-BHHLYP ENERGY IS     -288.7641881476 AFTER  38 ITERATIONS
 SA-REKS(2,2)-BHHLYP:  FON( 26) = 1.999961 FON( 27) = 0.000039

 ====================================================================================================================

 SSR: final printout

 ==============================================================

 Triplet:...............................     -288.743094330050
 Doubly excited singlet (DES):..........     -288.510250810781
 Open Shell Singlet (OSS):..............     -288.694270290904
 Perfectly Paired Singlet (PPS):........     -288.834106004388

 Lagrangian Wrs:........................        0.001579081988
 ==================================================================
 2SI-2SA-REKS(2,2)-BHHLYP states:
                       E_k               C_{PPS}         C_{OSS}
 ------------------------------------------------------------------
 SSR state 0     -288.834141345213     -0.99987369      0.01589350
 SSR state 1     -288.694234950078     -0.01589350     -0.99987369
 ------------------------------------------------------------------

 SSR: the ground state is reported
 SSR: unrelaxed occupation numbers:  FON( 26) = 1.999959 FON( 27) = 0.000041

 SSR: final energy =     -288.834141345213

 SSR: transition dipole between the S1 and S0 states
        Dipole = ( -3.33800848,  5.52757790,  0.27981599); |D| =  6.46333622 Debye

 ====================================================================================================================

          ------------
          EIGENVECTORS
          ------------

                      1          2          3          4          5
                  -15.0546   -10.8645   -10.8108   -10.7950   -10.7805
                     A          A          A          A          A   
    1  H  1  S    0.000336   0.000096  -0.000034   0.000027   0.000017
    2  H  1  S   -0.000144  -0.000206   0.000034   0.000002   0.000020
    3  N  2  S    0.993606  -0.000281  -0.000023   0.000024  -0.000003
    4  N  2  S    0.030837   0.000139  -0.000088   0.000007  -0.000013
    5  N  2  X    0.000165  -0.000109  -0.000007   0.000011  -0.000000
    6  N  2  Y    0.000011  -0.000119  -0.000022  -0.000013  -0.000019
    7  N  2  Z   -0.000004   0.000118  -0.000026  -0.000016  -0.000003
    8  N  2  S    0.001091   0.000024   0.000959  -0.001586  -0.000001
    9  N  2  X   -0.000402  -0.001330   0.000150  -0.000252  -0.000024
   10  N  2  Y   -0.000076  -0.000307   0.000126  -0.000427   0.000073
   11  N  2  Z    0.000331   0.001286  -0.000127   0.000394  -0.000033
   12  N  2 XX   -0.006303  -0.000252  -0.000065   0.000066  -0.000014
   13  N  2 YY   -0.006369  -0.000249  -0.000050   0.000110  -0.000003
   14  N  2 ZZ   -0.006289  -0.000294  -0.000043   0.000054  -0.000000
   15  N  2 XY    0.000020  -0.000191   0.000015  -0.000034  -0.000002
   16  N  2 XZ   -0.000063   0.000445  -0.000019  -0.000089  -0.000011
   17  N  2 YZ   -0.000006   0.000282  -0.000004  -0.000005   0.000000
   18  H  3  S    0.000217  -0.000174   0.000010  -0.000001  -0.000018
   19  H  3  S   -0.000257  -0.000865  -0.000239  -0.000085   0.000035
   20  C  4  S   -0.000001  -0.000007   0.000088  -0.000028   0.059999
   21  C  4  S   -0.000005  -0.000041  -0.000158  -0.000052   0.002038
   22  C  4  X    0.000001   0.000004  -0.000038  -0.000013  -0.000291
   23  C  4  Y    0.000001  -0.000012  -0.000026  -0.000003   0.000118
   24  C  4  Z   -0.000002  -0.000011   0.000014  -0.000001   0.000102
   25  C  4  S    0.000076   0.000535  -0.000080   0.000125   0.004834
   26  C  4  X    0.000060   0.000278   0.000112   0.000281   0.001887
   27  C  4  Y   -0.000046  -0.000142   0.000082  -0.000172  -0.001024
   28  C  4  Z   -0.000012  -0.000088  -0.000041   0.000085  -0.000572
   29  C  4 XX    0.000003   0.000008   0.000053   0.000010  -0.000691
   30  C  4 YY   -0.000002  -0.000004   0.000079  -0.000011  -0.000649
   31  C  4 ZZ    0.000000  -0.000003  -0.000031  -0.000012  -0.000552
   32  C  4 XY   -0.000002  -0.000016  -0.000065  -0.000023   0.000102
   33  C  4 XZ   -0.000002  -0.000008  -0.000014   0.000015   0.000029
   34  C  4 YZ   -0.000000  -0.000004  -0.000044  -0.000025   0.000056
   35  C  5  S    0.000001   0.000011   0.006810  -0.000645   0.992003
   36  C  5  S    0.000009   0.000006   0.000102  -0.000140   0.041256
   37  C  5  X   -0.000003  -0.000032   0.000019   0.000028  -0.000179
   38  C  5  Y    0.000004  -0.000010   0.000081   0.000053  -0.000197
   39  C  5  Z   -0.000000  -0.000009  -0.000106   0.000034   0.000190
   40  C  5  S   -0.000147  -0.000380   0.004613   0.000117  -0.015136
   41  C  5  X    0.000038   0.000372   0.000633  -0.000150   0.001192
   42  C  5  Y    0.000025  -0.000121  -0.001900  -0.000182   0.001310
   43  C  5  Z   -0.000045  -0.000156   0.000280   0.000167  -0.001699
   44  C  5 XX   -0.000004  -0.000013  -0.000246  -0.000012  -0.006336
   45  C  5 YY   -0.000001   0.000016  -0.000384   0.000033  -0.006677
   46  C  5 ZZ    0.000003   0.000009  -0.000418   0.000013  -0.006359
   47  C  5 XY    0.000002   0.000001   0.000072  -0.000044  -0.000058
   48  C  5 XZ    0.000002   0.000002  -0.000049  -0.000006  -0.000497
   49  C  5 YZ    0.000000  -0.000010   0.000214  -0.000037  -0.000166
   50  C  6  S   -0.000003  -0.000037   0.993735  -0.028679  -0.007135
   51  C  6  S   -0.000015  -0.000121   0.040337  -0.001578  -0.000371
   52  C  6  X    0.000003   0.000001   0.000086  -0.000268  -0.000031
   53  C  6  Y   -0.000005   0.000031  -0.000196   0.000180  -0.000116
   54  C  6  Z   -0.000001  -0.000020  -0.000502   0.000158   0.000113
   55  C  6  S    0.000504   0.001158  -0.017378   0.006365   0.004913
   56  C  6  X    0.000133   0.000717  -0.000852   0.002308  -0.000093
   57  C  6  Y   -0.000082  -0.000238   0.001136  -0.002554   0.001500
   58  C  6  Z   -0.000111  -0.000335   0.002999  -0.000902  -0.001251
   59  C  6 XX   -0.000002   0.000054  -0.005968  -0.000119  -0.000194
   60  C  6 YY   -0.000010   0.000023  -0.005952  -0.000037  -0.000392
   61  C  6 ZZ   -0.000003  -0.000011  -0.006196  -0.000047  -0.000201
   62  C  6 XY   -0.000001  -0.000049  -0.000259   0.000059   0.000139
   63  C  6 XZ   -0.000000  -0.000074  -0.000052   0.000150  -0.000013
   64  C  6 YZ    0.000002   0.000016   0.000039   0.000017   0.000184
   65  C  7  S    0.000002   0.003903   0.028181   0.993599   0.000428
   66  C  7  S    0.000034  -0.000045   0.000693   0.040681  -0.000076
   67  C  7  X   -0.000009  -0.000046   0.000264  -0.000124   0.000043
   68  C  7  Y    0.000035   0.000266  -0.000173  -0.000350  -0.000036
   69  C  7  Z   -0.000009  -0.000052  -0.000182   0.000382   0.000050
   70  C  7  S   -0.000074   0.004142   0.006487  -0.016864  -0.000640
   71  C  7  X    0.000428   0.001432  -0.002938   0.002202   0.000167
   72  C  7  Y   -0.000271  -0.003197   0.001915   0.000710  -0.000335
   73  C  7  Z   -0.000250  -0.000375   0.001137  -0.002226  -0.000177
   74  C  7 XX   -0.000004  -0.000213  -0.000421  -0.006233  -0.000003
   75  C  7 YY   -0.000028  -0.000472  -0.000438  -0.006021  -0.000004
   76  C  7 ZZ   -0.000020  -0.000254  -0.000488  -0.006493   0.000018
   77  C  7 XY   -0.000022   0.000066   0.000090  -0.000263  -0.000048
   78  C  7 XZ    0.000000   0.000050   0.000147  -0.000123  -0.000047
   79  C  7 YZ    0.000034   0.000095  -0.000089   0.000067  -0.000009
   80  C  8  S    0.000052   0.994012  -0.000094  -0.004271  -0.000010
   81  C  8  S    0.000211   0.040219  -0.000033  -0.000348   0.000008
   82  C  8  X   -0.000120  -0.000600   0.000007   0.000097  -0.000007
   83  C  8  Y   -0.000076  -0.000412  -0.000061  -0.000339  -0.000000
   84  C  8  Z    0.000138   0.000593  -0.000004   0.000003  -0.000032
   85  C  8  S    0.000350  -0.012600  -0.000514   0.005146  -0.000224
   86  C  8  X   -0.000468  -0.001304   0.000714  -0.001969  -0.000050
   87  C  8  Y   -0.000470  -0.002097   0.000223   0.002635   0.000112
   88  C  8  Z    0.000585   0.002381  -0.000482   0.001206   0.000243
   89  C  8 XX   -0.000021  -0.006155   0.000000  -0.000183   0.000004
   90  C  8 YY   -0.000009  -0.005957   0.000023  -0.000640   0.000011
   91  C  8 ZZ   -0.000036  -0.006073  -0.000034  -0.000192   0.000005
   92  C  8 XY   -0.000031   0.000068   0.000021   0.000026  -0.000003
   93  C  8 XZ    0.000000  -0.000571  -0.000011   0.000027   0.000006
   94  C  8 YZ    0.000027  -0.000239  -0.000002   0.000113   0.000002
   95  H  9  S    0.000003  -0.000003  -0.000035   0.000017  -0.000050
   96  H  9  S    0.000024   0.000065   0.000119   0.000129   0.000256
   97  H 10  S   -0.000009  -0.000091   0.000157  -0.000125  -0.000115
   98  H 10  S   -0.000032   0.000348   0.002191  -0.000084   0.000049
   99  H 11  S   -0.000008  -0.000011   0.000030  -0.000012  -0.000115
  100  H 11  S    0.000020   0.000020   0.000002   0.000121  -0.000236
  101  H 12  S   -0.000027  -0.000158  -0.000072  -0.000158  -0.000004
  102  H 12  S   -0.000099  -0.000217   0.000243   0.001250  -0.000003
  103  C 13  S   -0.000009   0.002785  -0.000022  -0.000207  -0.000018
  104  C 13  S   -0.000011  -0.000117  -0.000066  -0.000142  -0.000019
  105  C 13  X    0.000031   0.000193  -0.000001  -0.000013   0.000003
  106  C 13  Y   -0.000006  -0.000123  -0.000027  -0.000023   0.000011
  107  C 13  Z   -0.000029  -0.000219   0.000007   0.000035   0.000007
  108  C 13  S    0.000199   0.003580   0.000091   0.001213   0.000252
  109  C 13  X    0.000053  -0.000997  -0.000112  -0.000249  -0.000116
  110  C 13  Y    0.000199   0.001636   0.000048   0.000426   0.000042
  111  C 13  Z   -0.000121   0.000715  -0.000072   0.000314   0.000008
  112  C 13 XX   -0.000055  -0.000259  -0.000005  -0.000008   0.000001
  113  C 13 YY    0.000009  -0.000200  -0.000021   0.000022  -0.000004
  114  C 13 ZZ   -0.000062  -0.000301  -0.000025   0.000029  -0.000003
  115  C 13 XY    0.000005   0.000098  -0.000011  -0.000027  -0.000009
  116  C 13 XZ    0.000029   0.000206  -0.000010  -0.000061   0.000001
  117  C 13 YZ   -0.000007  -0.000098   0.000002   0.000025  -0.000002
  118  H 14  S   -0.000001  -0.000032  -0.000115   0.000001  -0.000466
  119  H 14  S   -0.000009  -0.000023  -0.000463   0.000120   0.001817
  120  H 15  S   -0.000013  -0.000141  -0.000038  -0.000022  -0.000000
  121  H 15  S   -0.000058   0.000142   0.000071  -0.000085   0.000018
  122  H 16  S    0.000002  -0.000164  -0.000018  -0.000056  -0.000011
  123  H 16  S   -0.000088   0.000208  -0.000103   0.000081  -0.000034
  124  H 17  S   -0.000008  -0.000093   0.000009  -0.000012  -0.000006
  125  H 17  S    0.000078   0.000284   0.000017   0.000119  -0.000015

                      6          7          8          9         10
                  -10.7696   -10.7687    -1.2665    -1.1124    -1.0576
                     A          A          A          A          A   
    1  H  1  S   -0.000000  -0.000084   0.081983  -0.028761   0.067730
    2  H  1  S    0.000014  -0.000162  -0.002447  -0.000397   0.003751
    3  N  2  S   -0.000006  -0.000054  -0.177887   0.037191  -0.086413
    4  N  2  S   -0.000020  -0.000301   0.367338  -0.079218   0.185729
    5  N  2  X    0.000001  -0.000031   0.053136   0.001405  -0.056113
    6  N  2  Y   -0.000009   0.000039   0.024910   0.020638  -0.044341
    7  N  2  Z   -0.000006   0.000039  -0.049891  -0.011871   0.079372
    8  N  2  S    0.000185   0.001514   0.409224  -0.096051   0.230647
    9  N  2  X    0.000014   0.000522   0.033660  -0.000622  -0.026905
   10  N  2  Y    0.000060   0.000148   0.008377   0.012731  -0.024185
   11  N  2  Z   -0.000008  -0.000581  -0.029287  -0.005645   0.039691
   12  N  2 XX   -0.000015  -0.000101   0.000688  -0.000530   0.000442
   13  N  2 YY   -0.000013  -0.000044   0.003135  -0.000980   0.004012
   14  N  2 ZZ   -0.000015  -0.000066   0.001768  -0.000307  -0.000046
   15  N  2 XY    0.000002   0.000004  -0.000690   0.001778  -0.005189
   16  N  2 XZ   -0.000004  -0.000145  -0.018794   0.003252  -0.006311
   17  N  2 YZ   -0.000001  -0.000027  -0.008094   0.000142  -0.000041
   18  H  3  S   -0.000002   0.000009   0.082696  -0.026641   0.093506
   19  H  3  S   -0.000043   0.000217   0.002339   0.000280   0.006378
   20  C  4  S    0.992013   0.000161  -0.001331  -0.099680  -0.074019
   21  C  4  S    0.041031  -0.000028   0.003070   0.191802   0.143687
   22  C  4  X    0.000322  -0.000010   0.001337   0.076952   0.046273
   23  C  4  Y   -0.000205   0.000011  -0.001292  -0.039688  -0.018453
   24  C  4  Z    0.000037  -0.000001  -0.000281  -0.020079  -0.012588
   25  C  4  S   -0.012932   0.000119  -0.001227   0.142488   0.109913
   26  C  4  X   -0.000986   0.000170  -0.003548   0.007253   0.002730
   27  C  4  Y    0.000531  -0.000147   0.003662  -0.007334  -0.002480
   28  C  4  Z   -0.000338  -0.000031  -0.000251   0.001314   0.003625
   29  C  4 XX   -0.006342   0.000001  -0.000006   0.004146   0.002378
   30  C  4 YY   -0.006635  -0.000009   0.000049  -0.002047  -0.001295
   31  C  4 ZZ   -0.006713  -0.000007  -0.000012  -0.002605  -0.001576
   32  C  4 XY   -0.000390  -0.000012  -0.000017  -0.007640  -0.004870
   33  C  4 XZ   -0.000399  -0.000006  -0.000091  -0.007844  -0.005526
   34  C  4 YZ   -0.000032  -0.000007   0.000038  -0.001497  -0.001730
   35  C  5  S   -0.060609   0.000004  -0.003482  -0.134285  -0.068543
   36  C  5  S   -0.002897  -0.000004   0.006007   0.263292   0.134991
   37  C  5  X    0.000410   0.000007   0.000525  -0.042859  -0.054312
   38  C  5  Y   -0.000071  -0.000001  -0.003380  -0.029686   0.020827
   39  C  5  Z   -0.000212  -0.000004   0.001293   0.045480   0.022712
   40  C  5  S    0.004643  -0.000004   0.010433   0.153489   0.093893
   41  C  5  X   -0.001449   0.000040   0.000029   0.009827  -0.002298
   42  C  5  Y    0.000735  -0.000096  -0.002608  -0.001274   0.001927
   43  C  5  Z    0.000620   0.000107   0.001519  -0.006767  -0.003927
   44  C  5 XX    0.000032  -0.000011  -0.000024   0.000490   0.001659
   45  C  5 YY    0.000179  -0.000001   0.000496  -0.001089  -0.004548
   46  C  5 ZZ    0.000181   0.000004  -0.000178  -0.001199  -0.000788
   47  C  5 XY    0.000070  -0.000001  -0.000399  -0.005301  -0.001160
   48  C  5 XZ    0.000141   0.000004  -0.000089  -0.008255  -0.006236
   49  C  5 YZ    0.000118  -0.000009  -0.000493  -0.007871  -0.001558
   50  C  6  S    0.000321  -0.000018  -0.014316  -0.121142   0.016951
   51  C  6  S   -0.000146  -0.000104   0.029786   0.233890  -0.033969
   52  C  6  X    0.000013  -0.000004   0.008465   0.011541  -0.056814
   53  C  6  Y   -0.000008   0.000010  -0.013685   0.018334   0.070637
   54  C  6  Z    0.000002  -0.000024  -0.004443  -0.059070   0.008335
   55  C  6  S   -0.000543   0.000935  -0.019018   0.184615  -0.034446
   56  C  6  X   -0.000692   0.000532  -0.011315  -0.018715  -0.012646
   57  C  6  Y    0.000665  -0.000690   0.006492   0.003565   0.017501
   58  C  6  Z    0.000096  -0.000121   0.007460  -0.010939   0.006215
   59  C  6 XX    0.000068  -0.000003   0.000059  -0.000212  -0.001468
   60  C  6 YY    0.000122   0.000007   0.001174   0.006156   0.002510
   61  C  6 ZZ    0.000020  -0.000034  -0.001018  -0.007339   0.001460
   62  C  6 XY   -0.000088  -0.000043  -0.000885  -0.007509   0.001429
   63  C  6 XZ    0.000031  -0.000029  -0.000510  -0.002818   0.003824
   64  C  6 YZ   -0.000065   0.000029   0.000130  -0.005097  -0.005145
   65  C  7  S   -0.000020   0.000186  -0.037069  -0.086809   0.094015
   66  C  7  S   -0.000043   0.000007   0.069272   0.170125  -0.185715
   67  C  7  X   -0.000003  -0.000057  -0.005005  -0.047669  -0.004390
   68  C  7  Y    0.000003   0.000045  -0.039150   0.032401   0.047958
   69  C  7  Z   -0.000011   0.000071   0.015213   0.022968  -0.010530
   70  C  7  S    0.000904  -0.001373   0.053043   0.115570  -0.128492
   71  C  7  X   -0.000368   0.000332  -0.027291   0.005561  -0.014774
   72  C  7  Y    0.000232  -0.000154   0.010582   0.003208   0.009211
   73  C  7  Z    0.000321  -0.000216   0.019062   0.000874   0.008491
   74  C  7 XX   -0.000019  -0.000064  -0.001922   0.001359   0.001578
   75  C  7 YY    0.000005   0.000049   0.006975   0.001996  -0.005645
   76  C  7 ZZ   -0.000005   0.000013  -0.002747  -0.005418   0.006308
   77  C  7 XY   -0.000003   0.000059  -0.001035  -0.005293   0.002799
   78  C  7 XZ   -0.000005  -0.000003  -0.001707  -0.006195   0.005030
   79  C  7 YZ   -0.000005  -0.000081  -0.002989   0.001179   0.000977
   80  C  8  S    0.000002  -0.003136  -0.121482  -0.017845   0.093486
   81  C  8  S    0.000006  -0.000251   0.245961   0.036024  -0.193998
   82  C  8  X    0.000004  -0.000118  -0.073546   0.007184  -0.065721
   83  C  8  Y   -0.000009   0.000187  -0.056573   0.057551  -0.043412
   84  C  8  Z   -0.000002   0.000106   0.082104  -0.026541   0.091958
   85  C  8  S   -0.000134   0.004267   0.067357   0.026165  -0.126035
   86  C  8  X    0.000086   0.001911   0.033788  -0.008439  -0.000792
   87  C  8  Y   -0.000009  -0.000714   0.022253   0.006238  -0.008940
   88  C  8  Z   -0.000102  -0.002032  -0.040321   0.001461   0.006622
   89  C  8 XX   -0.000003  -0.000303  -0.004386  -0.001833   0.005844
   90  C  8 YY   -0.000008  -0.000392  -0.002841   0.005425  -0.009597
   91  C  8 ZZ   -0.000002  -0.000282  -0.001528  -0.002991   0.007510
   92  C  8 XY    0.000006   0.000158   0.003871  -0.003978   0.010096
   93  C  8 XZ    0.000001   0.000183  -0.013948   0.001462   0.001928
   94  C  8 YZ   -0.000007  -0.000121  -0.007146   0.001088  -0.005364
   95  H  9  S   -0.000321   0.000012   0.000056   0.036771   0.033663
   96  H  9  S    0.001950   0.000098  -0.002413   0.000127   0.002349
   97  H 10  S   -0.000045  -0.000013   0.008788   0.048677  -0.005142
   98  H 10  S    0.000091  -0.000073   0.004119   0.000276   0.006012
   99  H 11  S   -0.000117  -0.000019   0.001156   0.052719   0.041183
  100  H 11  S    0.002393   0.000067  -0.000974   0.001558   0.001556
  101  H 12  S   -0.000017  -0.000025   0.010900   0.036406  -0.045885
  102  H 12  S    0.000125  -0.000019   0.004803   0.001655  -0.004009
  103  C 13  S   -0.000170   0.994008  -0.037437  -0.005494   0.100745
  104  C 13  S   -0.000023   0.041768   0.070933   0.010273  -0.190695
  105  C 13  X   -0.000000  -0.000269  -0.029906  -0.000831   0.028779
  106  C 13  Y   -0.000006   0.000413   0.019602   0.008951  -0.045945
  107  C 13  Z    0.000002   0.000169   0.028641  -0.002490  -0.014396
  108  C 13  S    0.000033  -0.017006   0.032893   0.013365  -0.179925
  109  C 13  X   -0.000004   0.000543  -0.005686   0.001717   0.001332
  110  C 13  Y    0.000024  -0.001531  -0.010700   0.003559  -0.013285
  111  C 13  Z   -0.000007  -0.000107   0.010182  -0.000239   0.000643
  112  C 13 XX   -0.000003  -0.006324   0.001526  -0.000157   0.000250
  113  C 13 YY   -0.000004  -0.006282   0.000222   0.000845  -0.002707
  114  C 13 ZZ   -0.000003  -0.006170   0.002715  -0.000431  -0.002064
  115  C 13 XY   -0.000003  -0.000084  -0.003325  -0.000501   0.003093
  116  C 13 XZ   -0.000003  -0.000052  -0.004987   0.000398   0.001939
  117  C 13 YZ    0.000003   0.000023   0.002157   0.000467  -0.001170
  118  H 14  S   -0.000012   0.000002   0.001333   0.066663   0.035012
  119  H 14  S   -0.000256   0.000078  -0.000049  -0.001248  -0.000919
  120  H 15  S   -0.000004   0.000218   0.011201   0.003635  -0.050804
  121  H 15  S   -0.000012   0.002475   0.000674  -0.000426  -0.004660
  122  H 16  S   -0.000007   0.000074   0.013846   0.004009  -0.060205
  123  H 16  S   -0.000008   0.002923   0.001803   0.000287  -0.004584
  124  H 17  S    0.000001  -0.000031   0.019216  -0.000668  -0.048182
  125  H 17  S    0.000007   0.002318  -0.000482  -0.002253  -0.002726

                     11         12         13         14         15
                   -1.0202    -0.9143    -0.8624    -0.8325    -0.7779
                     A          A          A          A          A   
    1  H  1  S    0.003058   0.082411   0.027039   0.000828  -0.162704
    2  H  1  S    0.002856   0.025053   0.012190  -0.001636  -0.071583
    3  N  2  S    0.022492  -0.023501  -0.010191  -0.004789  -0.001638
    4  N  2  S   -0.049406   0.050621   0.021895   0.011816   0.006654
    5  N  2  X    0.049967  -0.111747  -0.204426  -0.122018  -0.157088
    6  N  2  Y   -0.037000  -0.142829  -0.045792  -0.000912   0.285950
    7  N  2  Z   -0.043064   0.153364   0.221596   0.135898   0.030137
    8  N  2  S   -0.055558   0.069829   0.038043   0.017142  -0.002901
    9  N  2  X    0.029885  -0.048911  -0.103957  -0.063675  -0.104699
   10  N  2  Y   -0.018264  -0.077194  -0.017751  -0.002133   0.184248
   11  N  2  Z   -0.025033   0.072123   0.111363   0.073296   0.021578
   12  N  2 XX    0.001064   0.002331   0.002812   0.002414   0.003377
   13  N  2 YY   -0.002242   0.004505   0.003582   0.001295  -0.012770
   14  N  2 ZZ    0.000215   0.001128   0.004105   0.003794   0.007763
   15  N  2 XY   -0.000405  -0.009303  -0.004295  -0.000295   0.006471
   16  N  2 XZ    0.000666  -0.003783  -0.005073  -0.003582  -0.006567
   17  N  2 YZ    0.001534   0.004411   0.002035   0.000235   0.001678
   18  H  3  S   -0.044610   0.092620   0.148087   0.092077   0.107332
   19  H  3  S   -0.003179   0.026026   0.044416   0.027046   0.044884
   20  C  4  S   -0.085556   0.082766  -0.090274   0.040094   0.029041
   21  C  4  S    0.167268  -0.165807   0.181533  -0.079213  -0.060517
   22  C  4  X    0.043088   0.015379  -0.090395   0.097736   0.093322
   23  C  4  Y   -0.010218  -0.025895   0.039154   0.027217  -0.088399
   24  C  4  Z   -0.011833  -0.013861   0.070084  -0.112370  -0.022798
   25  C  4  S    0.138272  -0.148799   0.179815  -0.093900  -0.073430
   26  C  4  X    0.004731   0.011824  -0.031343   0.026660   0.032212
   27  C  4  Y   -0.003648  -0.009659   0.013817   0.015320  -0.038331
   28  C  4  Z    0.005829  -0.011420   0.024848  -0.031935  -0.004409
   29  C  4 XX    0.002315   0.000737  -0.004200   0.005427   0.001569
   30  C  4 YY   -0.001391  -0.000705   0.004503  -0.005956  -0.003272
   31  C  4 ZZ   -0.001484   0.000159   0.001169  -0.002021  -0.000874
   32  C  4 XY   -0.005038   0.003628  -0.004701   0.003940   0.001485
   33  C  4 XZ   -0.006254   0.004794  -0.003050  -0.001621   0.001270
   34  C  4 YZ   -0.002309   0.004015  -0.007317   0.007036   0.002409
   35  C  5  S   -0.056080  -0.016985   0.075853  -0.090879  -0.016768
   36  C  5  S    0.112983   0.032859  -0.154429   0.185943   0.036065
   37  C  5  X   -0.076136   0.094506  -0.096337   0.058279  -0.051425
   38  C  5  Y    0.052718  -0.086133   0.035365   0.116049  -0.041197
   39  C  5  Z    0.017800  -0.012331   0.061270  -0.151139   0.061455
   40  C  5  S    0.066366   0.036991  -0.143455   0.192595   0.021665
   41  C  5  X   -0.006226   0.023297  -0.030232   0.016817  -0.014041
   42  C  5  Y    0.013807  -0.024397   0.011908   0.021280  -0.003460
   43  C  5  Z   -0.012394   0.002340   0.017984  -0.035439   0.012233
   44  C  5 XX    0.002817  -0.005033   0.005529  -0.001136  -0.001503
   45  C  5 YY   -0.007326   0.006121  -0.000093  -0.008772  -0.000300
   46  C  5 ZZ   -0.000781   0.001543  -0.003431   0.004314  -0.000555
   47  C  5 XY    0.000283  -0.000495  -0.002063   0.002965   0.003009
   48  C  5 XZ   -0.006864   0.002814   0.003334  -0.010094  -0.000305
   49  C  5 YZ    0.001468  -0.007522   0.009601  -0.003920  -0.002152
   50  C  6  S    0.072332  -0.085590   0.024790   0.086017  -0.016030
   51  C  6  S   -0.144315   0.174004  -0.052990  -0.173045   0.028815
   52  C  6  X   -0.076395   0.015098   0.032504   0.034648  -0.153676
   53  C  6  Y    0.090119   0.017347  -0.087420   0.066765   0.016735
   54  C  6  Z    0.028947  -0.045242   0.033297  -0.026638   0.053377
   55  C  6  S   -0.111838   0.171710  -0.038788  -0.184434   0.054030
   56  C  6  X   -0.014268   0.009492   0.006138   0.039382  -0.054570
   57  C  6  Y    0.036357  -0.014550  -0.021198   0.007287  -0.000612
   58  C  6  Z    0.002737  -0.010908   0.010304  -0.013386   0.016618
   59  C  6 XX   -0.001711  -0.001485   0.004988  -0.003479  -0.001796
   60  C  6 YY    0.001771  -0.001409  -0.002935   0.002326   0.008182
   61  C  6 ZZ    0.004888  -0.003067  -0.001728   0.009558  -0.003923
   62  C  6 XY    0.002451   0.001684  -0.002363  -0.002998   0.005490
   63  C  6 XZ    0.006342  -0.003044  -0.002587   0.002653   0.005469
   64  C  6 YZ   -0.004472  -0.003550   0.007553  -0.002188  -0.005295
   65  C  7  S    0.098968   0.020065  -0.060005  -0.039073   0.058798
   66  C  7  S   -0.196906  -0.039805   0.121990   0.082125  -0.117618
   67  C  7  X    0.060167  -0.070653   0.039538   0.132745  -0.052256
   68  C  7  Y   -0.038581   0.164826  -0.031479  -0.097461  -0.165472
   69  C  7  Z   -0.041817   0.001556  -0.010002  -0.069192   0.049956
   70  C  7  S   -0.129710  -0.062033   0.122590   0.062030  -0.134741
   71  C  7  X   -0.002085   0.004912   0.025325   0.047864  -0.038440
   72  C  7  Y   -0.016429   0.032178  -0.011017  -0.015705  -0.052655
   73  C  7  Z    0.003776  -0.014310  -0.011728  -0.038469   0.032554
   74  C  7 XX   -0.001035   0.006290   0.000531  -0.002870  -0.003651
   75  C  7 YY    0.001638  -0.008290  -0.001744   0.006000   0.005195
   76  C  7 ZZ    0.004601   0.002145  -0.002444  -0.002868   0.001247
   77  C  7 XY    0.002158  -0.004757   0.001354   0.003952  -0.001594
   78  C  7 XZ    0.007561  -0.002372  -0.004351   0.000885   0.006441
   79  C  7 YZ    0.000303   0.007347  -0.000263  -0.005589  -0.000543
   80  C  8  S   -0.032246   0.088420   0.035824  -0.012907  -0.019191
   81  C  8  S    0.069449  -0.191917  -0.081177   0.025316   0.042398
   82  C  8  X    0.086658   0.093062   0.080228   0.057585  -0.077193
   83  C  8  Y   -0.143145  -0.103581   0.156230   0.156100   0.108358
   84  C  8  Z   -0.060120  -0.073747  -0.118000  -0.087826   0.008028
   85  C  8  S    0.019754  -0.146763  -0.039258   0.066121   0.061141
   86  C  8  X    0.020507  -0.012371  -0.001144   0.005968  -0.003359
   87  C  8  Y   -0.030606  -0.015597   0.027411   0.042998   0.007359
   88  C  8  Z   -0.011863   0.013304  -0.005969  -0.011885  -0.014501
   89  C  8 XX   -0.000335   0.005435   0.000847  -0.002485   0.006811
   90  C  8 YY   -0.002981   0.001575   0.006641   0.003753  -0.012406
   91  C  8 ZZ    0.000185   0.004500  -0.000871  -0.001951   0.002340
   92  C  8 XY   -0.003204  -0.004819  -0.008162  -0.003313  -0.005433
   93  C  8 XZ   -0.003853   0.004662   0.007326   0.003960  -0.006283
   94  C  8 YZ    0.005628   0.007583   0.007608   0.002212   0.009189
   95  H  9  S    0.045714  -0.073217   0.104852  -0.044171  -0.084779
   96  H  9  S    0.006881  -0.017870   0.033077  -0.018167  -0.033840
   97  H 10  S   -0.035121   0.039461   0.001179  -0.091594   0.082337
   98  H 10  S   -0.005916   0.013288   0.009765  -0.041949   0.055014
   99  H 11  S    0.048979  -0.063654   0.104610  -0.101112  -0.028094
  100  H 11  S    0.002925  -0.013345   0.034748  -0.041943  -0.012899
  101  H 12  S   -0.041500  -0.006081   0.052342   0.072463  -0.113840
  102  H 12  S   -0.001572  -0.004509   0.016235   0.030919  -0.053747
  103  C 13  S   -0.126587  -0.090169  -0.033983   0.006855  -0.024442
  104  C 13  S    0.240198   0.170628   0.062871  -0.014202   0.048163
  105  C 13  X   -0.027886   0.027504   0.044390   0.015056   0.042759
  106  C 13  Y    0.018130  -0.045477   0.007594   0.052175   0.017188
  107  C 13  Z    0.019489  -0.033265  -0.066334  -0.031713  -0.108664
  108  C 13  S    0.227546   0.216749   0.091930  -0.012603   0.047971
  109  C 13  X   -0.003968   0.000492   0.013649   0.006938   0.027145
  110  C 13  Y    0.007351   0.000864   0.015262   0.022436   0.001881
  111  C 13  Z    0.000662  -0.001329  -0.024079  -0.015955  -0.056507
  112  C 13 XX   -0.000367  -0.001074  -0.000227   0.000452   0.003031
  113  C 13 YY    0.000509  -0.001246   0.000840   0.001345  -0.002954
  114  C 13 ZZ    0.004536   0.004461   0.000532  -0.001767   0.002796
  115  C 13 XY   -0.001002   0.005099   0.003162  -0.000563   0.002418
  116  C 13 XZ   -0.002913   0.001864   0.004549   0.002071   0.004831
  117  C 13 YZ   -0.001543  -0.006898  -0.002277   0.002523  -0.000424
  118  H 14  S    0.029296   0.024585  -0.106084   0.177435  -0.029251
  119  H 14  S   -0.004048   0.010187  -0.035319   0.074309  -0.021985
  120  H 15  S    0.064429   0.064223   0.045924   0.011177   0.048003
  121  H 15  S    0.008826   0.018936   0.017099   0.005898   0.018581
  122  H 16  S    0.077822   0.077476   0.049923   0.005510   0.069003
  123  H 16  S    0.009686   0.021374   0.015181   0.000682   0.026507
  124  H 17  S    0.079352   0.079842   0.010094  -0.035501  -0.022133
  125  H 17  S    0.016706   0.030670   0.005681  -0.014871  -0.023810

                     16         17         18         19         20
                   -0.7474    -0.6907    -0.6831    -0.6726    -0.6447
                     A          A          A          A          A   
    1  H  1  S    0.084950  -0.017439  -0.102505  -0.059387   0.146934
    2  H  1  S    0.038491  -0.005084  -0.074284  -0.025356   0.093876
    3  N  2  S    0.009987  -0.017609  -0.019351   0.013660  -0.002885
    4  N  2  S   -0.025287   0.041504   0.047297  -0.034550   0.006684
    5  N  2  X   -0.003837   0.123670  -0.022551   0.057301   0.222652
    6  N  2  Y   -0.170168   0.096108   0.174559   0.138766  -0.175758
    7  N  2  Z    0.076367  -0.028325  -0.037139   0.202310   0.040571
    8  N  2  S   -0.015371   0.060607   0.073986  -0.038122   0.013018
    9  N  2  X    0.010991   0.072023  -0.018177   0.054234   0.143666
   10  N  2  Y   -0.103721   0.060331   0.105020   0.104773  -0.125165
   11  N  2  Z    0.035874  -0.008041  -0.016042   0.116543   0.039609
   12  N  2 XX    0.000828  -0.001254   0.003328   0.011343  -0.005730
   13  N  2 YY    0.007011   0.000150  -0.012411  -0.006869   0.020191
   14  N  2 ZZ   -0.000480  -0.006716   0.004636  -0.003963  -0.013218
   15  N  2 XY   -0.003398   0.004618   0.004069   0.004008   0.000697
   16  N  2 XZ    0.000267   0.004076  -0.004932  -0.005669   0.013195
   17  N  2 YZ   -0.001174  -0.001460   0.003003   0.004155  -0.008846
   18  H  3  S    0.001266  -0.042155   0.037621   0.067920  -0.115298
   19  H  3  S    0.004709  -0.033803   0.016563   0.049681  -0.079754
   20  C  4  S    0.021659  -0.009009   0.012597   0.006261   0.014632
   21  C  4  S   -0.048016   0.019209  -0.028456  -0.013663  -0.032537
   22  C  4  X    0.130520   0.183526  -0.188592  -0.062486  -0.092552
   23  C  4  Y   -0.176497  -0.104088  -0.028588   0.016103  -0.034804
   24  C  4  Z    0.028402  -0.055901   0.225278   0.038617   0.097912
   25  C  4  S   -0.046905   0.015645  -0.004104  -0.008261  -0.029305
   26  C  4  X    0.055992   0.063902  -0.055037  -0.019280  -0.025593
   27  C  4  Y   -0.081683  -0.037891  -0.015849   0.003050  -0.028295
   28  C  4  Z    0.015534  -0.013479   0.082274   0.008331   0.035286
   29  C  4 XX    0.001609   0.004315  -0.004329  -0.001127  -0.003428
   30  C  4 YY   -0.005096  -0.008202   0.005708   0.002127   0.001740
   31  C  4 ZZ   -0.000360  -0.003707   0.008704   0.002090   0.006549
   32  C  4 XY    0.000779   0.000711   0.001024   0.000335   0.003302
   33  C  4 XZ    0.002133  -0.000077   0.002018   0.000292  -0.001287
   34  C  4 YZ    0.000474   0.003399  -0.009724  -0.002102  -0.004759
   35  C  5  S   -0.002193  -0.006431   0.004365  -0.000319  -0.004940
   36  C  5  S    0.008549   0.015642  -0.009296  -0.000408   0.009028
   37  C  5  X   -0.100317  -0.166176   0.240680   0.072590   0.111740
   38  C  5  Y   -0.134327   0.003474  -0.176069  -0.010863  -0.024136
   39  C  5  Z    0.202487   0.167782   0.012689  -0.039657  -0.086912
   40  C  5  S   -0.039891  -0.013526   0.013438   0.012916   0.021713
   41  C  5  X   -0.018435  -0.037182   0.082253   0.026529   0.035779
   42  C  5  Y   -0.028191   0.001865  -0.065390  -0.007682  -0.007353
   43  C  5  Z    0.044829   0.042796   0.012546  -0.011319  -0.028350
   44  C  5 XX   -0.000515   0.005712  -0.007394  -0.002363  -0.004777
   45  C  5 YY    0.000691  -0.004221   0.004798   0.000089  -0.000450
   46  C  5 ZZ   -0.003791  -0.006582   0.007007   0.003622   0.007088
   47  C  5 XY    0.000357  -0.005440   0.001610   0.002082   0.007637
   48  C  5 XZ    0.003548   0.001751   0.001672  -0.000077  -0.003678
   49  C  5 YZ    0.000106   0.006740  -0.007764  -0.003830  -0.006381
   50  C  6  S   -0.006582   0.031373   0.001784  -0.013404  -0.004915
   51  C  6  S    0.010149  -0.060837   0.004787   0.028170   0.005209
   52  C  6  X   -0.141693   0.081768   0.015192  -0.008575  -0.100847
   53  C  6  Y    0.151575   0.077839   0.243582   0.016795   0.000001
   54  C  6  Z    0.015081  -0.012115  -0.078258   0.045229   0.048238
   55  C  6  S    0.057779  -0.103875  -0.041695   0.037770   0.032182
   56  C  6  X   -0.049420   0.024761   0.006218  -0.004160  -0.043469
   57  C  6  Y    0.049907   0.047688   0.093814   0.001544  -0.011636
   58  C  6  Z   -0.003265   0.001394  -0.015740   0.029987   0.021519
   59  C  6 XX    0.000356   0.003315  -0.006462   0.000847  -0.000643
   60  C  6 YY    0.003243  -0.001252  -0.002621   0.000016   0.003289
   61  C  6 ZZ   -0.002019   0.000061   0.006705  -0.002207  -0.001702
   62  C  6 XY   -0.000176  -0.011662   0.000683   0.002706   0.005573
   63  C  6 XZ    0.004858   0.000761  -0.000057   0.001495   0.002643
   64  C  6 YZ   -0.005259   0.001781  -0.008123  -0.004762  -0.003896
   65  C  7  S    0.004419  -0.041322   0.019186   0.017603   0.007189
   66  C  7  S   -0.010504   0.081383  -0.043070  -0.037264  -0.014226
   67  C  7  X    0.137201   0.114748   0.129547   0.041904   0.011486
   68  C  7  Y   -0.097498   0.084299   0.100049  -0.011389  -0.178490
   69  C  7  Z   -0.082089  -0.018929  -0.112094   0.081028   0.060922
   70  C  7  S   -0.004261   0.162975  -0.036597  -0.036667  -0.031944
   71  C  7  X    0.055447   0.046866   0.037674   0.022027  -0.002553
   72  C  7  Y   -0.032182   0.021816   0.086472  -0.001638  -0.066125
   73  C  7  Z   -0.027821   0.004532  -0.050407   0.048130   0.033621
   74  C  7 XX    0.000509  -0.000266   0.002022  -0.000815  -0.004029
   75  C  7 YY    0.006144  -0.002182   0.004636  -0.000636   0.003405
   76  C  7 ZZ   -0.001860   0.001650   0.001192   0.003049  -0.000036
   77  C  7 XY    0.000002   0.007345   0.003179  -0.006714  -0.003443
[...]
             44  C  5 XX      0.00181     0.15678
             45  C  5 YY     -0.00558     0.13641
             46  C  5 ZZ      0.00623     0.15546
             47  C  5 XY      0.00770     0.01583
             48  C  5 XZ      0.01025     0.02106
             49  C  5 YZ      0.00794     0.01363
             50  C  6  S      1.99419     1.97855
             51  C  6  S      0.71221     0.37736
             52  C  6  X      0.67631     0.59643
             53  C  6  Y      0.70529     0.61973
             54  C  6  Z      0.51223     0.46175
             55  C  6  S      0.63499     0.32840
             56  C  6  X      0.25748     0.38813
             57  C  6  Y      0.25739     0.35899
             58  C  6  Z      0.33970     0.39847
             59  C  6 XX      0.00464     0.16111
             60  C  6 YY      0.00854     0.17116
             61  C  6 ZZ     -0.01762     0.12570
             62  C  6 XY      0.01524     0.02766
             63  C  6 XZ      0.00569     0.01096
             64  C  6 YZ      0.00966     0.01611
             65  C  7  S      1.99376     1.97814
             66  C  7  S      0.68792     0.36204
             67  C  7  X      0.72594     0.65567
             68  C  7  Y      0.69057     0.61067
             69  C  7  Z      0.61769     0.56310
             70  C  7  S      0.52706     0.30694
             71  C  7  X      0.33635     0.43223
             72  C  7  Y      0.17924     0.33738
             73  C  7  Z      0.42763     0.48083
             74  C  7 XX      0.00414     0.15323
             75  C  7 YY      0.01109     0.17899
             76  C  7 ZZ     -0.01308     0.12207
             77  C  7 XY      0.00878     0.01814
             78  C  7 XZ      0.00595     0.01107
             79  C  7 YZ      0.00550     0.01090
             80  C  8  S      1.99399     1.97636
             81  C  8  S      0.74724     0.36822
             82  C  8  X      0.56595     0.48928
             83  C  8  Y      0.79438     0.68926
             84  C  8  Z      0.58030     0.50244
             85  C  8  S      0.36480     0.26695
             86  C  8  X      0.14896     0.31048
             87  C  8  Y      0.12542     0.31621
             88  C  8  Z      0.12408     0.30624
             89  C  8 XX     -0.00655     0.14233
             90  C  8 YY      0.01143     0.17632
             91  C  8 ZZ     -0.00240     0.15066
             92  C  8 XY      0.01651     0.03124
             93  C  8 XZ      0.01034     0.02023
             94  C  8 YZ      0.01612     0.03135
             95  H  9  S      0.52547     0.48029
             96  H  9  S      0.25078     0.32904
             97  H 10  S      0.46865     0.44390
             98  H 10  S      0.35436     0.38658
             99  H 11  S      0.54067     0.49713
            100  H 11  S      0.26724     0.32767
            101  H 12  S      0.49326     0.45932
            102  H 12  S      0.29498     0.35971
            103  C 13  S      1.99376     1.97918
            104  C 13  S      0.65968     0.35769
            105  C 13  X      0.70645     0.63871
            106  C 13  Y      0.69869     0.62837
            107  C 13  Z      0.74384     0.66820
            108  C 13  S      0.68964     0.32673
            109  C 13  X      0.37656     0.46966
            110  C 13  Y      0.31420     0.43343
            111  C 13  Z      0.36629     0.44563
            112  C 13 XX      0.00351     0.14351
            113  C 13 YY      0.00538     0.15147
            114  C 13 ZZ      0.01522     0.16299
            115  C 13 XY      0.00731     0.01166
            116  C 13 XZ      0.00518     0.00866
            117  C 13 YZ      0.00871     0.01487
            118  H 14  S      0.55249     0.49227
            119  H 14  S      0.23214     0.30120
            120  H 15  S      0.48014     0.44824
            121  H 15  S      0.26994     0.34156
            122  H 16  S      0.50847     0.46659
            123  H 16  S      0.21155     0.30469
            124  H 17  S      0.51717     0.47489
            125  H 17  S      0.26666     0.33268

          ----- MULLIKEN ATOMIC OVERLAP POPULATIONS -----
          (OFF-DIAGONAL ELEMENTS NEED TO BE MULTIPLIED BY 2)

             1           2           3           4           5

    1    0.3452807
    2    0.3043818   6.9286959
    3   -0.0250351   0.3050594   0.2910228
    4   -0.0000001   0.0000063  -0.0000044   5.0503766
    5   -0.0000002   0.0001129  -0.0000340   0.6121483   4.7991091
    6    0.0002225  -0.0190394   0.0017165  -0.0498319   0.4232016
    7    0.0045249  -0.0671012  -0.0035873   0.0039725  -0.0508206
    8   -0.0324769   0.3958420  -0.0127881  -0.0003851   0.0035953
    9    0.0000000  -0.0000001  -0.0000001   0.3688000  -0.0171664
   10    0.0000585   0.0038294   0.0021848  -0.0087278  -0.0343475
   11    0.0000000  -0.0000041   0.0000152   0.3932030  -0.0533222
   12   -0.0001165   0.0039206   0.0000403   0.0004849  -0.0051123
   13   -0.0047690  -0.0678749   0.0037358   0.0000015  -0.0000638
   14    0.0000001   0.0000003   0.0000014  -0.0338759   0.3975165
   15    0.0001270   0.0020707  -0.0000917   0.0000000  -0.0000035
   16    0.0002717  -0.0016058  -0.0000905   0.0000000   0.0000083
   17    0.0094665  -0.0069349   0.0001221  -0.0000000   0.0000006

             6           7           8           9          10

    6    4.9980254
    7    0.4959619   5.1135702
    8   -0.0265050   0.4462099   4.4912917
    9    0.0045216  -0.0002581   0.0000031   0.4662917
   10    0.3713388  -0.0630949  -0.0124546   0.0003954   0.5557005
   11   -0.0135518   0.0019508  -0.0000251  -0.0446584   0.0013687
   12   -0.0310817   0.3706506  -0.0434855   0.0000002   0.0042781
   13    0.0025061  -0.0434753   0.3676996  -0.0000000  -0.0000449
   14   -0.0414225  -0.0013995   0.0001127  -0.0016777   0.0025141
   15    0.0000305  -0.0013906  -0.0260666  -0.0000000   0.0000072
   16   -0.0000550  -0.0008491  -0.0227404   0.0000000   0.0000013
   17   -0.0000964   0.0036963  -0.0372678   0.0000000   0.0000062

            11          12          13          14          15

   11    0.5189663
   12    0.0000167   0.4877959
   13    0.0000003  -0.0024491   5.2359602
   14    0.0039442   0.0016440   0.0000033   0.4572672
   15    0.0000000   0.0013499   0.3603784  -0.0000000   0.4578516
   16    0.0000000   0.0002679   0.3679354   0.0000010  -0.0288974
   17   -0.0000000   0.0000378   0.3748809  -0.0000000  -0.0152897

            16          17

   16    0.4165458
   17   -0.0107764   0.4659851

          TOTAL MULLIKEN AND LOWDIN ATOMIC POPULATIONS
       ATOM         MULL.POP.    CHARGE          LOW.POP.     CHARGE
    1 H             0.601936    0.398064         0.684789    0.315211
    2 N             7.781359   -0.781359         7.344844   -0.344844
    3 H             0.562267    0.437733         0.651232    0.348768
    4 C             6.336168   -0.336168         6.254038   -0.254038
    5 C             6.074822   -0.074822         6.159093   -0.159093
    6 C             6.115941   -0.115941         6.020518   -0.020518
    7 C             6.208561   -0.208561         6.221408   -0.221408
    8 C             5.490559    0.509441         5.777566    0.222434
    9 H             0.776251    0.223749         0.809339    0.190661
   10 H             0.823013    0.176987         0.830475    0.169525
   11 H             0.807904    0.192096         0.824800    0.175200
   12 H             0.788242    0.211758         0.819030    0.180970
   13 C             6.594425   -0.594425         6.440757   -0.440757
   14 H             0.784629    0.215371         0.793462    0.206538
   15 H             0.750076    0.249924         0.789802    0.210198
   16 H             0.720017    0.279983         0.771273    0.228727
   17 H             0.783830    0.216170         0.807574    0.192426

          -------------------------------
          BOND ORDER AND VALENCE ANALYSIS     BOND ORDER THRESHOLD=0.050
          -------------------------------

                   BOND                       BOND                       BOND
  ATOM PAIR DIST  ORDER      ATOM PAIR DIST  ORDER      ATOM PAIR DIST  ORDER
    1   2  1.103  0.802        2   3  1.040  0.767        2   8  1.312  1.346
    4   5  1.314  1.835        4   6  2.248  0.065        4   7  3.517  0.066
    4   9  1.066  0.922        4  11  1.056  0.934        5   6  1.504  1.103
    5  14  0.987  0.926        6   7  1.372  1.571        6   8  2.535  0.058
    6  10  1.246  0.923        7   8  1.449  1.191        7  12  1.163  0.912
    8  13  1.443  1.014       13  15  1.164  0.902       13  16  1.070  0.883
   13  17  1.101  0.923

                       TOTAL       BONDED        FREE
      ATOM            VALENCE     VALENCE     VALENCE
    1 H                 0.818       0.818      -0.000
    2 N                 3.047       3.036       0.011
    3 H                 0.789       0.790      -0.000
    4 C                 3.828       3.851      -0.023
    5 C                 3.832       3.883      -0.051
    6 C                 3.807       3.782       0.025
    7 C                 3.789       3.760       0.029
    8 C                 3.599       3.648      -0.049
    9 H                 0.914       0.914      -0.000
   10 H                 0.939       0.938       0.001
   11 H                 0.918       0.918      -0.000
   12 H                 0.925       0.926      -0.000
   13 C                 3.739       3.740      -0.001
   14 H                 0.916       0.917      -0.000
   15 H                 0.907       0.908      -0.002
   16 H                 0.887       0.889      -0.002
   17 H                 0.927       0.927      -0.000

          -----------------------------------------
          ATOMIC SPIN DENSITY AT THE NUCLEUS (A.U.)
          -----------------------------------------
                            SPIN DENS    ALPHA DENS     BETA DENS
    1  H            1.0     0.0000000       0.35456       0.35456
    2  N            7.0     0.0000000     190.71634     190.71634
    3  H            1.0     0.0000000       0.36169       0.36169
    4  C            6.0     0.0000000     117.99923     117.99923
    5  C            6.0     0.0000000     117.90280     117.90280
    6  C            6.0     0.0000000     118.00243     118.00243
    7  C            6.0     0.0000000     117.84078     117.84078
    8  C            6.0     0.0000000     117.94351     117.94351
    9  H            1.0     0.0000000       0.42393       0.42393
   10  H            1.0     0.0000000       0.35743       0.35743
   11  H            1.0     0.0000000       0.44116       0.44116
   12  H            1.0     0.0000000       0.38282       0.38282
   13  C            6.0     0.0000000     117.74046     117.74046
   14  H            1.0     0.0000000       0.46363       0.46363
   15  H            1.0     0.0000000       0.37351       0.37351
   16  H            1.0     0.0000000       0.41031       0.41031
   17  H            1.0     0.0000000       0.41141       0.41141

          ---------------------
          ELECTROSTATIC MOMENTS
          ---------------------

 POINT   1           X           Y           Z (BOHR)    CHARGE
                 0.001126    0.000826    0.000780        1.00 (A.U.)
         DX          DY          DZ         /D/  (DEBYE)
     0.600512   -4.347272    1.145520    4.535593
 ...... END OF PROPERTY EVALUATION ......
 CPU     0: STEP CPU TIME=     0.02 TOTAL CPU TIME=         46.9 (      0.8 MIN)
 TOTAL WALL CLOCK TIME=         50.5 SECONDS, CPU UTILIZATION IS    92.87%

 BEGINNING ONE ELECTRON GRADIENT...
 ..... END OF 1-ELECTRON GRADIENT ......
 CPU     0: STEP CPU TIME=     0.01 TOTAL CPU TIME=         46.9 (      0.8 MIN)
 TOTAL WALL CLOCK TIME=         50.5 SECONDS, CPU UTILIZATION IS    92.86%

          ----------------------
          GRADIENT OF THE ENERGY
          ----------------------
 MEMORY FOR GRID POINT CONTRIBUTIONS TO THE TD-DFT GRADIENT=   1767728 WORDS.
 ==> REKS DFT XC gradient: microstate 1 done; CL( 1) =  0.99970597 CLSA( 1) =  0.49999034
 ==> REKS DFT XC gradient: microstate 2 done; CL( 2) =  0.00004142 CLSA( 2) =  0.00000966
 ==> REKS DFT XC gradient: microstate 3 done; CL( 3) = -0.00004349 CLSA( 3) =  0.49992526
 ==> REKS DFT XC gradient: microstate 4 done; CL( 4) =  0.00016979 CLSA( 4) = -0.24992526
 CPU     0: STEP CPU TIME=     8.69 TOTAL CPU TIME=         55.6 (      0.9 MIN)
 TOTAL WALL CLOCK TIME=         60.0 SECONDS, CPU UTILIZATION IS    92.69%

 THE MINIMUM MEMORY REQUIRED FOR THIS RUN IS     312814 WORDS.
 USING    1288334 WORDS FOR 2E- DERIVATIVE INTEGRAL CONTRIBUTIONS.
 ==> REKS 2e gradient: microstate 1 done; CL( 1) =  0.99970597 CLSA( 1) =  0.49999034
 ==> REKS 2e gradient: microstate 2 done; CL( 2) =  0.00004142 CLSA( 2) =  0.00000966
 ==> REKS 2e gradient: microstate 3 done; CL( 3) = -0.00004349 CLSA( 3) =  0.49992526
 ==> REKS 2e gradient: microstate 4 done; CL( 4) =  0.00016979 CLSA( 4) = -0.24992526
 THE COARSE/FINE SCHWARZ SCREENINGS SKIPPED    420713206/   264905638 BLOCKS.
 THE NUMBER OF GRADIENT INTEGRAL BLOCKS COMPUTED WAS 557337017
 ...... END OF 2-ELECTRON GRADIENT ......
 CPU     0: STEP CPU TIME=     0.75 TOTAL CPU TIME=         56.4 (      0.9 MIN)
 TOTAL WALL CLOCK TIME=         60.8 SECONDS, CPU UTILIZATION IS    92.69%

                         ----------------------
                         GRADIENT OF THE ENERGY
                         ----------------------

 UNITS ARE HARTREE/BOHR    E'X               E'Y               E'Z 
    1 H                0.015932511      -0.057273534       0.017397419
    2 N               -0.012721819       0.114386858      -0.042332912
    3 H               -0.020898246      -0.031198018       0.026841586
    4 C                0.019268614      -0.044805803      -0.021785763
    5 C                0.038564751       0.072076760      -0.109573911
    6 C                0.049459085       0.072348043       0.085984225
    7 C               -0.073044099      -0.026111027       0.014369174
    8 C                0.065204678      -0.047375100      -0.030707953
    9 H                0.000964700      -0.011733511       0.028433458
   10 H               -0.051581621      -0.056368307      -0.013484085
   11 H                0.003942299       0.020986958      -0.010760767
   12 H                0.036003425       0.021470215      -0.019262157
   13 C               -0.075445308      -0.006938058       0.004535390
   14 H               -0.045607459      -0.034033744       0.062566907
   15 H                0.035035357       0.012807204      -0.019312511
   16 H                0.019047983       0.008707012       0.008799358
   17 H               -0.004124851      -0.006945949       0.018292542

                   MAXIMUM GRADIENT =    0.114386858
                       RMS GRADIENT =    0.043509132
  $VIB   
          IVIB=   0 IATOM=   0 ICOORD=   0 E=     -288.8341413452
  1.593251140E-02-5.727353377E-02 1.739741897E-02-1.272181878E-02 1.143868584E-01
 -4.233291228E-02-2.089824609E-02-3.119801763E-02 2.684158624E-02 1.926861398E-02
 -4.480580288E-02-2.178576272E-02 3.856475123E-02 7.207676033E-02-1.095739111E-01
  4.945908518E-02 7.234804338E-02 8.598422460E-02-7.304409932E-02-2.611102736E-02
  1.436917411E-02 6.520467774E-02-4.737509965E-02-3.070795311E-02 9.647002795E-04
 -1.173351089E-02 2.843345811E-02-5.158162124E-02-5.636830693E-02-1.348408457E-02
  3.942298834E-03 2.098695840E-02-1.076076728E-02 3.600342473E-02 2.147021455E-02
 -1.926215735E-02-7.544530799E-02-6.938057880E-03 4.535389957E-03-4.560745883E-02
 -3.403374408E-02 6.256690678E-02 3.503535718E-02 1.280720354E-02-1.931251080E-02
  1.904798279E-02 8.707011738E-03 8.799358123E-03-4.124851089E-03-6.945949218E-03
  1.829254236E-02
  6.005124646E-01-4.347272241E+00 1.145520067E+00

..... END OF SINGLE POINT GRADIENT .....
 CPU     0: STEP CPU TIME=     0.00 TOTAL CPU TIME=         56.4 (      0.9 MIN)
 TOTAL WALL CLOCK TIME=         60.8 SECONDS, CPU UTILIZATION IS    92.69%
 EXECUTION OF GAMESS TERMINATED NORMALLY 22:45:34 20-JAN-2023    
      2792491 WORDS OF DYNAMIC MEMORY USED
 DDI: 263640 bytes (0.3 MB / 0 MWords) used by master data server.

 ----------------------------------------
 CPU timing information for all processes
 ========================================
 0: 55.30 + 1.563 = 56.594
 1: 55.28 + 1.472 = 56.501
 2: 54.154 + 1.230 = 55.385
 3: 54.611 + 1.434 = 56.46
 4: 54.964 + 1.501 = 56.466
 5: 54.270 + 1.58 = 55.329
 6: 54.563 + 1.464 = 56.27
 7: 54.452 + 1.224 = 55.677
 8: 53.819 + 0.989 = 54.808
 9: 54.01 + 1.224 = 55.226
 10: 54.510 + 1.250 = 55.761
 11: 53.997 + 0.862 = 54.859
 ----------------------------------------
 ddikick.x: exited gracefully.
----- accounting info -----
Files used on the master node p0183.ten.osc.edu were:
-rw-r--r-- 1 danilk PCON0010   254522 Jan 20 22:44 /tmp/slurmtmp.14507555/14507555/SSR2.2-PSB3-CH3-C8-011.G.tmp.F05
-rw-r--r-- 1 danilk PCON0010 21061872 Jan 20 22:44 /tmp/slurmtmp.14507555/14507555/SSR2.2-PSB3-CH3-C8-011.G.tmp.F08
-rw-r--r-- 1 danilk PCON0010 22141968 Jan 20 22:44 /tmp/slurmtmp.14507555/14507555/SSR2.2-PSB3-CH3-C8-011.G.tmp.F08.001
-rw-r--r-- 1 danilk PCON0010 19441728 Jan 20 22:44 /tmp/slurmtmp.14507555/14507555/SSR2.2-PSB3-CH3-C8-011.G.tmp.F08.002
-rw-r--r-- 1 danilk PCON0010 19621744 Jan 20 22:44 /tmp/slurmtmp.14507555/14507555/SSR2.2-PSB3-CH3-C8-011.G.tmp.F08.003
-rw-r--r-- 1 danilk PCON0010 21241888 Jan 20 22:44 /tmp/slurmtmp.14507555/14507555/SSR2.2-PSB3-CH3-C8-011.G.tmp.F08.004
-rw-r--r-- 1 danilk PCON0010 18901680 Jan 20 22:44 /tmp/slurmtmp.14507555/14507555/SSR2.2-PSB3-CH3-C8-011.G.tmp.F08.005
-rw-r--r-- 1 danilk PCON0010 21781936 Jan 20 22:44 /tmp/slurmtmp.14507555/14507555/SSR2.2-PSB3-CH3-C8-011.G.tmp.F08.006
-rw-r--r-- 1 danilk PCON0010 20881856 Jan 20 22:44 /tmp/slurmtmp.14507555/14507555/SSR2.2-PSB3-CH3-C8-011.G.tmp.F08.007
-rw-r--r-- 1 danilk PCON0010 18541648 Jan 20 22:44 /tmp/slurmtmp.14507555/14507555/SSR2.2-PSB3-CH3-C8-011.G.tmp.F08.008
-rw-r--r-- 1 danilk PCON0010 19261712 Jan 20 22:44 /tmp/slurmtmp.14507555/14507555/SSR2.2-PSB3-CH3-C8-011.G.tmp.F08.009
-rw-r--r-- 1 danilk PCON0010 21421904 Jan 20 22:44 /tmp/slurmtmp.14507555/14507555/SSR2.2-PSB3-CH3-C8-011.G.tmp.F08.010
-rw-r--r-- 1 danilk PCON0010 19441728 Jan 20 22:44 /tmp/slurmtmp.14507555/14507555/SSR2.2-PSB3-CH3-C8-011.G.tmp.F08.011
-rw-r--r-- 1 danilk PCON0010  3926400 Jan 20 22:45 /tmp/slurmtmp.14507555/14507555/SSR2.2-PSB3-CH3-C8-011.G.tmp.F10
-rw-r--r-- 1 danilk PCON0010  1136680 Jan 20 22:45 /tmp/slurmtmp.14507555/14507555/SSR2.2-PSB3-CH3-C8-011.G.tmp.F22
-rw-r--r-- 1 danilk PCON0010  1136680 Jan 20 22:45 /tmp/slurmtmp.14507555/14507555/SSR2.2-PSB3-CH3-C8-011.G.tmp.F22.001
-rw-r--r-- 1 danilk PCON0010  1136680 Jan 20 22:45 /tmp/slurmtmp.14507555/14507555/SSR2.2-PSB3-CH3-C8-011.G.tmp.F22.002
-rw-r--r-- 1 danilk PCON0010  1136680 Jan 20 22:45 /tmp/slurmtmp.14507555/14507555/SSR2.2-PSB3-CH3-C8-011.G.tmp.F22.003
-rw-r--r-- 1 danilk PCON0010  1136680 Jan 20 22:45 /tmp/slurmtmp.14507555/14507555/SSR2.2-PSB3-CH3-C8-011.G.tmp.F22.004
-rw-r--r-- 1 danilk PCON0010  1136680 Jan 20 22:45 /tmp/slurmtmp.14507555/14507555/SSR2.2-PSB3-CH3-C8-011.G.tmp.F22.005
-rw-r--r-- 1 danilk PCON0010  1136680 Jan 20 22:45 /tmp/slurmtmp.14507555/14507555/SSR2.2-PSB3-CH3-C8-011.G.tmp.F22.006
-rw-r--r-- 1 danilk PCON0010  1136680 Jan 20 22:45 /tmp/slurmtmp.14507555/14507555/SSR2.2-PSB3-CH3-C8-011.G.tmp.F22.007
-rw-r--r-- 1 danilk PCON0010  1136680 Jan 20 22:45 /tmp/slurmtmp.14507555/14507555/SSR2.2-PSB3-CH3-C8-011.G.tmp.F22.008
-rw-r--r-- 1 danilk PCON0010  1136680 Jan 20 22:45 /tmp/slurmtmp.14507555/14507555/SSR2.2-PSB3-CH3-C8-011.G.tmp.F22.009
-rw-r--r-- 1 danilk PCON0010  1136680 Jan 20 22:45 /tmp/slurmtmp.14507555/14507555/SSR2.2-PSB3-CH3-C8-011.G.tmp.F22.010
-rw-r--r-- 1 danilk PCON0010  1136680 Jan 20 22:45 /tmp/slurmtmp.14507555/14507555/SSR2.2-PSB3-CH3-C8-011.G.tmp.F22.011
Fri Jan 20 22:45:40 EST 2023
0.855u 0.320s 1:08.65 1.7%	0+0k 504+776io 0pf+0w
