   This run of MOLCAS is using the pymolcas driver

                             OPE
                             OPE          NMOL  CASOP  ENMOLC A   SO
                 OPE        NMOLC        AS  OP EN  MO LC     AS  OP
                OPENM       OL CA        SO  PE NM  OL CA     SOP EN
                OP EN      MO   LC       AS  OP ENMOL  CASO   PENMOL
                OP  EN     MO   LC       AS  OP EN     MO     LC ASO
               OP   E  NMOL  C  AS       OP  EN MO     LC     AS  OP
               OP  E   NMO   LC AS        OPEN  MO     LCASOP EN   M
               O  PEN   MO  LCA  SO
            OPE   NMO   L   CAS    OP
        OPENMOL  CASOP     ENMOL   CASOPE
     OPENMOLCA   SOPENMOLCASOPEN   MOLCASOPE
    OPENMOLCAS   OP           EN   MOL    CAS
    OPENMOLCAS       OP  ENM        O     LCA
    OPENMOLCAS    OPEN  MOLCASO     P  E  NMO
    OPENMOLCAS     OP               E  N  MOL
    OPENMOLCA   SO           PENM   O  L  CAS    OPEN    MO    LCAS
    OPENMOLCA   SOP           ENM   O  L  CAS   OP  EN  MOLC  AS   O
    OPENMOLCA   SOPE           NM      O  LCA   S      OP  EN MO
    OPENMOLC                AS         O  PEN   M      OL  CA  SOPE
    OPENMO        LCASOPE  NMOL        C  ASO   P      ENMOLC     AS
    OPE     NMO      LCA  SO     P     E   NM   OL  CA SO  PE N   MO
          OPENMOLCA            SOPE   NMO        LCAS  O    P  ENMO
     OPENMOLCASOPENMOLCASOPENMOLCASOPENMOLCA
        OPENMOLCASOPENMOLCASOPENMOLCASOPE
            OPENMOLCASOPENMOLCASOPENM
               OPENMOLCASOPENMOLCA        version: 22.10
                   OPENMOLCASO
                       OPE                tag: 587-g8732141-dirty

 OpenMolcas is free software; you can redistribute it and/or modify it
 under the terms of the GNU Lesser General Public License version 2.1.
 OpenMolcas is distributed in the hope that it will be useful, but it
 is provided "as is" and without any express or implied warranties.
 For more details see the full text of the license in the file
 LICENSE or in <http://www.gnu.org/licenses/>.

                 Copyright (C) The OpenMolcas Authors
           For the author list and the recommended citation,
                   consult the file CONTRIBUTORS.md

           *************************************************
           * pymolcas version py2.23                       *
           *   build d53e6f8e18683222a6e02cb84ce98eb3      *
           *   (after the EMIL interpreter by V. Veryazov) *
           *************************************************

configuration info
------------------
Host name: pitzer-login04.hpc.osc.edu (Linux)
C Compiler ID: GNU
C flags: -std=gnu99
Fortran Compiler ID: Intel
Fortran flags: -fpp -i8 -heap-arrays
Definitions: _MOLCAS_;_I8_;_LINUX_
Parallel: OFF (GA=OFF)


   ---------------------------------------------------------------------------------------------------------------------
  |
  |           Project: SSR2.2-PSB3-CH3-C8-011
  |    Submitted from: /tmp/14507555
  |      Scratch area: /tmp/14507555
  |   Save outputs to: /users/PCON0010/danilk/An-OpenMolcas2023-Inter-Tests/PSB3-CH3-Tests/FRANDOM-1/PSB3-CH3-OpenMolcas
  |            Molcas: /users/PCON0010/danilk/Apps/OpenMolcas-Interface/OpenMolcas
  |
  | Scratch area is empty
  |
  |    MOLCAS_DRIVER = /users/PCON0010/danilk/Apps/OpenMolcas-Interface/OpenMolcas/build/pymolcas
  |    MOLCAS_NPROCS = 1
  |    MOLCAS_SOURCE = /users/PCON0010/danilk/Apps/OpenMolcas-Interface/OpenMolcas
  | MOLCAS_STRUCTURE = 0
  |
   ---------------------------------------------------------------------------------------------------------------------

++ ---------   Input file   ---------

>>> EXPORT MOLCAS_MOLDEN = ON

>>> COPY $InpDir/$Project.RunFile .

>>> COPY $InpDir/$Project.velocity.xyz .

>>> COPY $InpDir/$Project.JobIph .

>>> SHELL $InpDir/GUTS/slice_in2.sh

>>> SHELL $InpDir/GUTS/slice_gamess.sh

>>> COPY $InpDir/GEOMETRY.txt .

>>> COPY $InpDir/NROOTS.txt .

>>> COPY $InpDir/NCI.txt .

>>> COPY $InpDir/RLXROOT.txt .

>>> SHELL $InpDir/GUTS/gamess_init_root.sh

>>> FOREACH A IN (1..200)

  >>> SHELL $GAMESS_LOCATION/rungms-dev $InpDir/$Project.G.tmp.inp 01 12 12 > $InpDir/$Project.G.tmp.out

  >>> SHELL $InpDir/GUTS/update_gamess_vec.sh

  >>> SHELL $InpDir/GUTS/get_gradient.sh

  >>> SHELL $InpDir/GUTS/get_pot_energy.sh

  >>> SHELL $InpDir/GUTS/get_S0_and_S1_energy.sh

  >>> SHELL $InpDir/GUTS/get_S0_and_S1_coeff.sh

  >>> COPY $InpDir/GRADIENT.txt .

  >>> COPY $InpDir/POT_ENERGY.txt .

  >>> COPY $InpDir/ROOTS_E.txt .

  >>> COPY $InpDir/ROOTS_C.txt .

  &SURFACEHOP
   tully
   decoherence = 0.1
   FRANDOM=1.0

  >>> IF (-FILE HOP.txt)

    >>> COPY RLXROOT.txt $InpDir/RLXROOT.txt

    >>> SHELL $InpDir/GUTS/slice_gamess_hop.sh

    >>> SHELL $InpDir/GUTS/update_gamess_geo.sh

    >>> SHELL $GAMESS_LOCATION/rungms-dev $InpDir/$Project.G.tmp.inp 01 12 12 > $InpDir/$Project.G.tmp.out

    >>> SHELL $InpDir/GUTS/update_gamess_vec.sh

    >>> SHELL $InpDir/GUTS/get_gradient.sh

    >>> SHELL $InpDir/GUTS/get_pot_energy.sh

    >>> SHELL $InpDir/GUTS/get_S0_and_S1_energy.sh

    >>> SHELL $InpDir/GUTS/get_S0_and_S1_coeff.sh

    >>> COPY $InpDir/GRADIENT.txt .

    >>> COPY $InpDir/POT_ENERGY.txt .

    >>> COPY $InpDir/ROOTS_E.txt .

    >>> COPY $InpDir/ROOTS_C.txt .

    >>> RM HOP.txt

  >>> END IF

  &DYNAMIX
    Velver
    DT=41.322314
    velo=1
    Ther=0

  >>> COPY GEOMETRY.txt $InpDir/GEOMETRY.txt

  >>> SHELL $InpDir/GUTS/update_gamess_geo.sh

>>> END FOREACH

-- ----------------------------------

>>> EXPORT MOLCAS_MOLDEN = ON

>>> COPY /users/PCON0010/danilk/An-OpenMolcas2023-Inter-Tests/PSB3-CH3-Tests/FRANDOM-1/PSB3-CH3-OpenMolcas/SSR2.2-PSB3-CH3-C8-011.RunFile .

>>> COPY /users/PCON0010/danilk/An-OpenMolcas2023-Inter-Tests/PSB3-CH3-Tests/FRANDOM-1/PSB3-CH3-OpenMolcas/SSR2.2-PSB3-CH3-C8-011.velocity.xyz .

>>> COPY /users/PCON0010/danilk/An-OpenMolcas2023-Inter-Tests/PSB3-CH3-Tests/FRANDOM-1/PSB3-CH3-OpenMolcas/SSR2.2-PSB3-CH3-C8-011.JobIph .

>>> SHELL /users/PCON0010/danilk/An-OpenMolcas2023-Inter-Tests/PSB3-CH3-Tests/FRANDOM-1/PSB3-CH3-OpenMolcas/GUTS/slice_in2.sh

>>> SHELL /users/PCON0010/danilk/An-OpenMolcas2023-Inter-Tests/PSB3-CH3-Tests/FRANDOM-1/PSB3-CH3-OpenMolcas/GUTS/slice_gamess.sh

>>> COPY /users/PCON0010/danilk/An-OpenMolcas2023-Inter-Tests/PSB3-CH3-Tests/FRANDOM-1/PSB3-CH3-OpenMolcas/GEOMETRY.txt .

>>> COPY /users/PCON0010/danilk/An-OpenMolcas2023-Inter-Tests/PSB3-CH3-Tests/FRANDOM-1/PSB3-CH3-OpenMolcas/NROOTS.txt .

>>> COPY /users/PCON0010/danilk/An-OpenMolcas2023-Inter-Tests/PSB3-CH3-Tests/FRANDOM-1/PSB3-CH3-OpenMolcas/NCI.txt .

>>> COPY /users/PCON0010/danilk/An-OpenMolcas2023-Inter-Tests/PSB3-CH3-Tests/FRANDOM-1/PSB3-CH3-OpenMolcas/RLXROOT.txt .

>>> SHELL /users/PCON0010/danilk/An-OpenMolcas2023-Inter-Tests/PSB3-CH3-Tests/FRANDOM-1/PSB3-CH3-OpenMolcas/GUTS/gamess_init_root.sh

>>> EXPORT A = 1

>>> SHELL /users/PCON0010/danilk/Apps/gamess-2021-ESPF-REKS-LINK/rungms-dev /users/PCON0010/danilk/An-OpenMolcas2023-Inter-Tests/PSB3-CH3-Tests/FRANDOM-1/PSB3-CH3-OpenMolcas/SSR2.2-PSB3-CH3-C8-011.G.tmp.inp 01 12 12 > /users/PCON0010/danilk/An-OpenMolcas2023-Inter-Tests/PSB3-CH3-Tests/FRANDOM-1/PSB3-CH3-OpenMolcas/SSR2.2-PSB3-CH3-C8-011.G.tmp.out

>>> SHELL /users/PCON0010/danilk/An-OpenMolcas2023-Inter-Tests/PSB3-CH3-Tests/FRANDOM-1/PSB3-CH3-OpenMolcas/GUTS/update_gamess_vec.sh

>>> SHELL /users/PCON0010/danilk/An-OpenMolcas2023-Inter-Tests/PSB3-CH3-Tests/FRANDOM-1/PSB3-CH3-OpenMolcas/GUTS/get_gradient.sh

>>> SHELL /users/PCON0010/danilk/An-OpenMolcas2023-Inter-Tests/PSB3-CH3-Tests/FRANDOM-1/PSB3-CH3-OpenMolcas/GUTS/get_pot_energy.sh

>>> SHELL /users/PCON0010/danilk/An-OpenMolcas2023-Inter-Tests/PSB3-CH3-Tests/FRANDOM-1/PSB3-CH3-OpenMolcas/GUTS/get_S0_and_S1_energy.sh

>>> SHELL /users/PCON0010/danilk/An-OpenMolcas2023-Inter-Tests/PSB3-CH3-Tests/FRANDOM-1/PSB3-CH3-OpenMolcas/GUTS/get_S0_and_S1_coeff.sh

>>> COPY /users/PCON0010/danilk/An-OpenMolcas2023-Inter-Tests/PSB3-CH3-Tests/FRANDOM-1/PSB3-CH3-OpenMolcas/GRADIENT.txt .

>>> COPY /users/PCON0010/danilk/An-OpenMolcas2023-Inter-Tests/PSB3-CH3-Tests/FRANDOM-1/PSB3-CH3-OpenMolcas/POT_ENERGY.txt .

>>> COPY /users/PCON0010/danilk/An-OpenMolcas2023-Inter-Tests/PSB3-CH3-Tests/FRANDOM-1/PSB3-CH3-OpenMolcas/ROOTS_E.txt .

>>> COPY /users/PCON0010/danilk/An-OpenMolcas2023-Inter-Tests/PSB3-CH3-Tests/FRANDOM-1/PSB3-CH3-OpenMolcas/ROOTS_C.txt .

--- Start Module: surfacehop at Fri Jan 20 18:13:30 2023 ---
 
()()()()()()()()()()()()()()()()()()()()()()()()()()()()()()()()()()()()()()()()()()()()()()()()()()

                                            &SURFACEHOP

                                   only a single process is used
                       available to each process: 5.0 GB of memory, 1 thread?
                                            pid: 266845
()()()()()()()()()()()()()()()()()()()()()()()()()()()()()()()()()()()()()()()()()()()()()()()()()()
 
 OPENED BYPASS FILE ROOT COEFFICIENTS
 
 ------------------------------------------
             TULLY ALGORITHM
 ------------------------------------------
 
 OPENED BYPASS FILE ROOT ENERGIES
 Using CI vector product for WF overlap
 
 Did the density matrix exists?  F
 Did the Pre-coefficients array exists?  F
 Gnuplot:  0.000000000000000E+000   1.00000000000000     
  -288.874877235842       -288.716756942139       -288.716756942139     
 Cannot do deltas at first step, see you later! 
--- Stop Module: surfacehop at Fri Jan 20 18:13:31 2023 /rc=_RC_ALL_IS_WELL_ ---
*** files: xmldump
    saved to directory /users/PCON0010/danilk/An-OpenMolcas2023-Inter-Tests/PSB3-CH3-Tests/FRANDOM-1/PSB3-CH3-OpenMolcas

>>> IF (-FILE HOP.txt)
(Skipped)

--- Start Module: dynamix at Fri Jan 20 18:13:31 2023 ---
 
()()()()()()()()()()()()()()()()()()()()()()()()()()()()()()()()()()()()()()()()()()()()()()()()()()

                                              &DYNAMIX

                                   only a single process is used
                       available to each process: 5.0 GB of memory, 1 thread?
                                            pid: 266849
()()()()()()()()()()()()()()()()()()()()()()()()()()()()()()()()()()()()()()()()()()()()()()()()()()
 
 
     Dynamics in full dimensionality.
     The initial velocities (bohr/au) are read in.
 
 
 
       Velocities      (time      0.0 a.u.):
 ----------------------------------------------
      No.  Atom    X          Y          Z     
 ----------------------------------------------
         1  H   0.000312  -0.000340  -0.000460
         2  N  -0.000014   0.000023   0.000128
         3  H   0.000100   0.000710  -0.002004
         4  C   0.000078  -0.000113  -0.000233
         5  C   0.000001   0.000159  -0.000024
         6  C   0.000016   0.000082   0.000007
         7  C  -0.000034   0.000091  -0.000102
         8  C  -0.000017  -0.000075  -0.000040
         9  H  -0.000398   0.000881   0.003191
        10  H  -0.000158  -0.001771   0.000119
        11  H  -0.000070   0.000579  -0.000073
        12  H  -0.000636   0.000056   0.000760
        13  C  -0.000101  -0.000001  -0.000018
        14  H  -0.000857  -0.000250   0.000177
        15  H   0.001591  -0.001568   0.000045
        16  H  -0.000280  -0.000360   0.000845
        17  H   0.001280   0.000055   0.000511
 ----------------------------------------------
 
 
 
     Kinetic energy       0.286356828405D-01 a.u.
 OPENED BYPASS FILE ROOT Epot
  -288.716756942139     
 OPENED BYPASS FILE NROOTS
                     2
  -288.874877235842     
  -288.716756942139     
 OPENED BYPASS FILE ROOT ENERGIES
     Total Energy        -0.288688121259D+03 a.u.
 *** First step of the Velocity Verlet algorithm ***
 OPENED BYPASS FILE COORDINATES
 nAtoms_Full=                    17
 OPENED BYPASS FILE GRADIENT
 OPENED BYPASS FILE COORDINATES
 nAtoms_Full=                    17
 OPENED BYPASS FILE GRADIENT
 
 
 
       Old Coordinates (time      0.0 a.u.):
 ----------------------------------------------------------------------------------------------
       No. Atom    X          Y          Z        Mass       F(x)         F(y)         F(z)
 ----------------------------------------------------------------------------------------------
         1  H   2.691409  -6.077010   0.686867  1.84E+03 -2.64406E-02  5.81042E-02  2.31456E-02
         2  N   1.966640  -4.355735   1.583258  2.55E+04  5.99922E-02 -8.15266E-02  7.37939E-02
         3  H   2.480218  -4.158084   3.557129  1.84E+03 -1.23369E-02 -1.27507E-02 -5.42829E-02
         4  C  -2.272071   5.329587  -1.417512  2.19E+04 -2.79437E-02  1.03830E-01 -8.57728E-03
         5  C  -1.467415   2.965829  -1.251916  2.19E+04 -9.14261E-03 -1.08912E-01 -1.87023E-02
         6  C  -0.557072   2.030255   1.140088  2.19E+04 -5.70147E-03 -4.74496E-02 -1.31647E-01
         7  C   0.461417  -0.183980   1.936163  2.19E+04 -2.76175E-03 -4.20624E-02 -4.06345E-02
         8  C   0.997742  -2.400380   0.487020  2.19E+04 -1.32546E-02  2.16095E-02 -4.64450E-02
         9  H  -2.871046   6.124499  -3.274009  1.84E+03  5.57762E-03 -9.81106E-03  2.18267E-02
        10  H  -0.720120   3.335859   2.333632  1.84E+03 -7.39570E-03  1.06651E-01  1.09541E-01
        11  H  -2.360131   6.793392   0.206522  1.84E+03  4.99406E-03 -3.55902E-02 -3.01975E-02
        12  H   0.567650  -0.298165   3.870942  1.84E+03  9.44990E-03 -8.65753E-03  4.33600E-02
        13  C   0.582802  -2.627622  -2.325060  2.19E+04  1.27864E-01  5.53248E-03 -8.42183E-03
        14  H  -2.017882   1.576138  -2.969308  1.84E+03  2.46945E-02  4.10853E-02  4.74058E-02
        15  H   1.770343  -0.914042  -3.264247  1.84E+03 -2.34038E-02 -4.79161E-02  1.72689E-02
        16  H  -1.161559  -2.248971  -2.823504  1.84E+03 -9.62005E-02  1.59274E-02 -2.41544E-02
        17  H   1.158538  -4.541243  -3.270685  1.84E+03 -7.99027E-03  4.19365E-02  2.67204E-02
 ----------------------------------------------------------------------------------------------
 
 
 
 
     Molecular Dynamics specifications (time =      0.0 a.u.)
     ==========================================

     Kinetic energy         0.2864D-01 a.u.
     Total linear momentum  0.6010D-01 a.u.
     RMS deviation          0.6008D-01 Bohr
 
 
 
       New Coordinates (time     41.3 a.u.):
 ----------------------------------------------------------------------------------------------
       No. Atom    X          Y          Z        Mass       F(x)         F(y)         F(z)
 ----------------------------------------------------------------------------------------------
         1  H   2.692014  -6.064057   0.678615  1.84E+03 -2.64406E-02  5.81042E-02  2.31456E-02
         2  N   1.968068  -4.357511   1.591015  2.55E+04  5.99922E-02 -8.15266E-02  7.37939E-02
         3  H   2.478617  -4.134670   3.449092  1.84E+03 -1.23369E-02 -1.27507E-02 -5.42829E-02
         4  C  -2.269938   5.328970  -1.427475  2.19E+04 -2.79437E-02  1.03830E-01 -8.57728E-03
         5  C  -1.467730   2.968148  -1.253637  2.19E+04 -9.14261E-03 -1.08912E-01 -1.87023E-02
         6  C  -0.556633   2.031792   1.135239  2.19E+04 -5.70147E-03 -4.74496E-02 -1.31647E-01
         7  C   0.459904  -0.181861   1.930362  2.19E+04 -2.76175E-03 -4.20624E-02 -4.06345E-02
         8  C   0.996522  -2.402636   0.483555  2.19E+04 -1.32546E-02  2.16095E-02 -4.64450E-02
         9  H  -2.884900   6.156344  -3.132006  1.84E+03  5.57762E-03 -9.81106E-03  2.18267E-02
        10  H  -0.730086   3.312240   2.389455  1.84E+03 -7.39570E-03  1.06651E-01  1.09541E-01
        11  H  -2.360703   6.800778   0.189472  1.84E+03  4.99406E-03 -3.55902E-02 -3.01975E-02
        12  H   0.545761  -0.299874   3.922497  1.84E+03  9.44990E-03 -8.65753E-03  4.33600E-02
        13  C   0.583619  -2.627448  -2.326132  2.19E+04  1.27864E-01  5.53248E-03 -8.42183E-03
        14  H  -2.041819   1.584901  -2.939964  1.84E+03  2.46945E-02  4.10853E-02  4.74058E-02
        15  H   1.825211  -1.001103  -3.254362  1.84E+03 -2.34038E-02 -4.79161E-02  1.72689E-02
        16  H  -1.217836  -2.256445  -2.799812  1.84E+03 -9.62005E-02  1.59274E-02 -2.41544E-02
        17  H   1.207717  -4.519482  -3.237152  1.84E+03 -7.99027E-03  4.19365E-02  2.67204E-02
 ----------------------------------------------------------------------------------------------
 
 
 
 
--- Stop Module: dynamix at Fri Jan 20 18:13:31 2023 /rc=_RC_ALL_IS_WELL_ ---
*** files: SSR2.2-PSB3-CH3-C8-011.md.energies SSR2.2-PSB3-CH3-C8-011.md.xyz xmldump
    saved to directory /users/PCON0010/danilk/An-OpenMolcas2023-Inter-Tests/PSB3-CH3-Tests/FRANDOM-1/PSB3-CH3-OpenMolcas

>>> COPY GEOMETRY.txt /users/PCON0010/danilk/An-OpenMolcas2023-Inter-Tests/PSB3-CH3-Tests/FRANDOM-1/PSB3-CH3-OpenMolcas/GEOMETRY.txt

>>> SHELL /users/PCON0010/danilk/An-OpenMolcas2023-Inter-Tests/PSB3-CH3-Tests/FRANDOM-1/PSB3-CH3-OpenMolcas/GUTS/update_gamess_geo.sh

>>> END FOREACH

>>> EXPORT A = 2

>>> SHELL /users/PCON0010/danilk/Apps/gamess-2021-ESPF-REKS-LINK/rungms-dev /users/PCON0010/danilk/An-OpenMolcas2023-Inter-Tests/PSB3-CH3-Tests/FRANDOM-1/PSB3-CH3-OpenMolcas/SSR2.2-PSB3-CH3-C8-011.G.tmp.inp 01 12 12 > /users/PCON0010/danilk/An-OpenMolcas2023-Inter-Tests/PSB3-CH3-Tests/FRANDOM-1/PSB3-CH3-OpenMolcas/SSR2.2-PSB3-CH3-C8-011.G.tmp.out

>>> SHELL /users/PCON0010/danilk/An-OpenMolcas2023-Inter-Tests/PSB3-CH3-Tests/FRANDOM-1/PSB3-CH3-OpenMolcas/GUTS/update_gamess_vec.sh

>>> SHELL /users/PCON0010/danilk/An-OpenMolcas2023-Inter-Tests/PSB3-CH3-Tests/FRANDOM-1/PSB3-CH3-OpenMolcas/GUTS/get_gradient.sh

>>> SHELL /users/PCON0010/danilk/An-OpenMolcas2023-Inter-Tests/PSB3-CH3-Tests/FRANDOM-1/PSB3-CH3-OpenMolcas/GUTS/get_pot_energy.sh

>>> SHELL /users/PCON0010/danilk/An-OpenMolcas2023-Inter-Tests/PSB3-CH3-Tests/FRANDOM-1/PSB3-CH3-OpenMolcas/GUTS/get_S0_and_S1_energy.sh

>>> SHELL /users/PCON0010/danilk/An-OpenMolcas2023-Inter-Tests/PSB3-CH3-Tests/FRANDOM-1/PSB3-CH3-OpenMolcas/GUTS/get_S0_and_S1_coeff.sh

>>> COPY /users/PCON0010/danilk/An-OpenMolcas2023-Inter-Tests/PSB3-CH3-Tests/FRANDOM-1/PSB3-CH3-OpenMolcas/GRADIENT.txt .

>>> COPY /users/PCON0010/danilk/An-OpenMolcas2023-Inter-Tests/PSB3-CH3-Tests/FRANDOM-1/PSB3-CH3-OpenMolcas/POT_ENERGY.txt .

>>> COPY /users/PCON0010/danilk/An-OpenMolcas2023-Inter-Tests/PSB3-CH3-Tests/FRANDOM-1/PSB3-CH3-OpenMolcas/ROOTS_E.txt .

>>> COPY /users/PCON0010/danilk/An-OpenMolcas2023-Inter-Tests/PSB3-CH3-Tests/FRANDOM-1/PSB3-CH3-OpenMolcas/ROOTS_C.txt .

--- Start Module: surfacehop at Fri Jan 20 18:14:36 2023 ---
 
()()()()()()()()()()()()()()()()()()()()()()()()()()()()()()()()()()()()()()()()()()()()()()()()()()

                                            &SURFACEHOP

                                   only a single process is used
                       available to each process: 5.0 GB of memory, 1 thread?
                                            pid: 267328
()()()()()()()()()()()()()()()()()()()()()()()()()()()()()()()()()()()()()()()()()()()()()()()()()()
 
 OPENED BYPASS FILE ROOT COEFFICIENTS
 
 ------------------------------------------
             TULLY ALGORITHM
 ------------------------------------------
 
 OPENED BYPASS FILE ROOT ENERGIES
 Using CI vector product for WF overlap
 
 Did the density matrix exists?  T
 Did the Pre-coefficients array exists?  T
 Did the Pre-Pre-coefficients array exists?  F
 At second step we will use normal Tully Algorithm:
 Density Matrix elements (i=1..#states):
 (0.000000000000000E+000,0.000000000000000E+000)
 (0.000000000000000E+000,0.000000000000000E+000)
 (0.000000000000000E+000,0.000000000000000E+000)
 (1.00000000000000,0.000000000000000E+000)
 BeforeFunctionsCoefficients are:                      2 *                     2
 -0.999950430000000      -0.999965500000000       0.000000000000000E+000
  9.956660000000001E-003 -8.306590000000001E-003  0.000000000000000E+000
 -9.956660000000001E-003  8.306590000000001E-003  0.000000000000000E+000
 -0.999950430000000      -0.999965500000000       0.000000000000000E+000
 Using CI vector products for sign correction/root ordering
 
 Executing Normal Tully !!
 
 Using CI vector product to calculate D matrix
 AfterFunctionsCoefficients are:                      2 *                     2
 -0.999950430000000      -0.999965500000000       0.000000000000000E+000
 -9.956660000000001E-003 -8.306590000000001E-003  0.000000000000000E+000
  9.956660000000001E-003  8.306590000000001E-003  0.000000000000000E+000
 -0.999950430000000      -0.999965500000000       0.000000000000000E+000
 From input Random is Fixed at:   1.00000000000000     
 Normalized by Substep number:  5.025125628140704E-003
 executing the integration:
 Time Step is:       41.3223140000000     
 Substeps are:                    199
 Gnuplot:  3.805854213196702E-008  0.999999961941458     
  -288.893775356728       -288.735970628066       -288.735970628066     
--- Stop Module: surfacehop at Fri Jan 20 18:14:36 2023 /rc=_RC_ALL_IS_WELL_ ---
*** files: xmldump
    saved to directory /users/PCON0010/danilk/An-OpenMolcas2023-Inter-Tests/PSB3-CH3-Tests/FRANDOM-1/PSB3-CH3-OpenMolcas

>>> IF (-FILE HOP.txt)
(Skipped)

--- Start Module: dynamix at Fri Jan 20 18:14:36 2023 ---
 
()()()()()()()()()()()()()()()()()()()()()()()()()()()()()()()()()()()()()()()()()()()()()()()()()()

                                              &DYNAMIX

                                   only a single process is used
                       available to each process: 5.0 GB of memory, 1 thread?
                                            pid: 267333
()()()()()()()()()()()()()()()()()()()()()()()()()()()()()()()()()()()()()()()()()()()()()()()()()()
 
 
 *** Second step of the Velocity Verlet algorithm ***
 OPENED BYPASS FILE COORDINATES
 nAtoms_Full=                    17
 OPENED BYPASS FILE GRADIENT
 
 
 
       Velocities      (time     41.3 a.u.):
 ----------------------------------------------------------------------------------------------
       No. Atom    X          Y          Z        Mass       F(x)         F(y)         F(z)
 ----------------------------------------------------------------------------------------------
         1  H  -0.000275   0.000945   0.000071  1.84E+03 -2.57547E-02  5.61306E-02  2.40515E-02
         2  N   0.000074  -0.000107   0.000216  2.55E+04  4.91058E-02 -7.85665E-02  3.46417E-02
         3  H  -0.000067   0.000437  -0.002798  1.84E+03 -2.52064E-03 -1.15578E-02 -1.62936E-02
         4  C   0.000034   0.000075  -0.000211  2.19E+04 -1.82713E-02  9.53622E-02  3.18680E-02
         5  C  -0.000017  -0.000044  -0.000057  2.19E+04 -9.46822E-03 -1.06354E-01 -1.63130E-02
         6  C   0.000005   0.000006  -0.000228  2.19E+04 -6.30602E-03 -3.27887E-02 -1.17300E-01
         7  C  -0.000038   0.000008  -0.000156  2.19E+04 -1.25795E-03 -4.58450E-02 -1.60684E-02
         8  C  -0.000041  -0.000035  -0.000125  2.19E+04 -1.17049E-02  2.07834E-02 -4.35574E-02
         9  H  -0.000400   0.000786   0.003219  1.84E+03 -5.76878E-03  1.36971E-03 -1.93323E-02
        10  H  -0.000324   0.000472   0.002428  1.84E+03 -7.32052E-03  9.27701E-02  9.57474E-02
        11  H   0.000063  -0.000239  -0.000715  1.84E+03  6.81339E-03 -3.71783E-02 -2.68858E-02
        12  H  -0.000440  -0.000123   0.001438  1.84E+03  7.96422E-03 -7.22702E-03  1.69182E-02
        13  C   0.000119   0.000010  -0.000036  2.19E+04  1.04897E-01  6.28187E-03 -1.01499E-02
        14  H  -0.000292   0.000642   0.001198  1.84E+03  2.55597E-02  3.82584E-02  4.34199E-02
        15  H   0.001030  -0.002538   0.000404  1.84E+03 -2.64424E-02 -3.82912E-02  1.46759E-02
        16  H  -0.002124  -0.000063   0.000353  1.84E+03 -6.77225E-02  1.04439E-02 -1.95994E-02
        17  H   0.001057   0.000936   0.001083  1.84E+03 -1.18017E-02  3.64083E-02  2.41775E-02
 ----------------------------------------------------------------------------------------------
 
 
 
 


     Final Energy at time     41.3
     ============================

     Kinetic energy       4.546886770647E-02 a.u.
     Potential Energy    -2.887359706281E+02 a.u.
     Total Energy        -2.886905017604E+02 a.u.
 OPENED BYPASS FILE NROOTS
                     2
  -288.893775356728     
  -288.735970628066     
 OPENED BYPASS FILE ROOT ENERGIES
 *** First step of the Velocity Verlet algorithm ***
 OPENED BYPASS FILE COORDINATES
 nAtoms_Full=                    17
 OPENED BYPASS FILE GRADIENT
 OPENED BYPASS FILE COORDINATES
 nAtoms_Full=                    17
 OPENED BYPASS FILE GRADIENT
 
 
 
       Old Coordinates (time     41.3 a.u.):
 ----------------------------------------------------------------------------------------------
       No. Atom    X          Y          Z        Mass       F(x)         F(y)         F(z)
 ----------------------------------------------------------------------------------------------
         1  H   2.692014  -6.064057   0.678615  1.84E+03 -2.57547E-02  5.61306E-02  2.40515E-02
         2  N   1.968068  -4.357511   1.591015  2.55E+04  4.91058E-02 -7.85665E-02  3.46417E-02
         3  H   2.478617  -4.134670   3.449092  1.84E+03 -2.52064E-03 -1.15578E-02 -1.62936E-02
         4  C  -2.269938   5.328970  -1.427475  2.19E+04 -1.82713E-02  9.53622E-02  3.18680E-02
         5  C  -1.467730   2.968148  -1.253637  2.19E+04 -9.46822E-03 -1.06354E-01 -1.63130E-02
         6  C  -0.556633   2.031792   1.135239  2.19E+04 -6.30602E-03 -3.27887E-02 -1.17300E-01
         7  C   0.459904  -0.181861   1.930362  2.19E+04 -1.25795E-03 -4.58450E-02 -1.60684E-02
         8  C   0.996522  -2.402636   0.483555  2.19E+04 -1.17049E-02  2.07834E-02 -4.35574E-02
         9  H  -2.884900   6.156344  -3.132006  1.84E+03 -5.76878E-03  1.36971E-03 -1.93323E-02
        10  H  -0.730086   3.312240   2.389455  1.84E+03 -7.32052E-03  9.27701E-02  9.57474E-02
        11  H  -2.360703   6.800778   0.189472  1.84E+03  6.81339E-03 -3.71783E-02 -2.68858E-02
        12  H   0.545761  -0.299874   3.922497  1.84E+03  7.96422E-03 -7.22702E-03  1.69182E-02
        13  C   0.583619  -2.627448  -2.326132  2.19E+04  1.04897E-01  6.28187E-03 -1.01499E-02
        14  H  -2.041819   1.584901  -2.939964  1.84E+03  2.55597E-02  3.82584E-02  4.34199E-02
        15  H   1.825211  -1.001103  -3.254362  1.84E+03 -2.64424E-02 -3.82912E-02  1.46759E-02
        16  H  -1.217836  -2.256445  -2.799812  1.84E+03 -6.77225E-02  1.04439E-02 -1.95994E-02
        17  H   1.207717  -4.519482  -3.237152  1.84E+03 -1.18017E-02  3.64083E-02  2.41775E-02
 ----------------------------------------------------------------------------------------------
 
 
 
 
     Molecular Dynamics specifications (time =     41.3 a.u.)
     ==========================================

     Kinetic energy         0.4547D-01 a.u.
     Total linear momentum  0.6010D-01 a.u.
     RMS deviation          0.8249D-01 Bohr
 
 
 
       New Coordinates (time     82.6 a.u.):
 ----------------------------------------------------------------------------------------------
       No. Atom    X          Y          Z        Mass       F(x)         F(y)         F(z)
 ----------------------------------------------------------------------------------------------
         1  H   2.668681  -5.998934   0.692718  1.84E+03 -2.57547E-02  5.61306E-02  2.40515E-02
         2  N   1.972781  -4.364543   1.601090  2.55E+04  4.91058E-02 -7.85665E-02  3.46417E-02
         3  H   2.474673  -4.121999   3.325912  1.84E+03 -2.52064E-03 -1.15578E-02 -1.62936E-02
         4  C  -2.269232   5.335797  -1.434951  2.19E+04 -1.82713E-02  9.53622E-02  3.18680E-02
         5  C  -1.468785   2.962165  -1.256632  2.19E+04 -9.46822E-03 -1.06354E-01 -1.63130E-02
         6  C  -0.556687   2.030768   1.121233  2.19E+04 -6.30602E-03 -3.27887E-02 -1.17300E-01
         7  C   0.458293  -0.183321   1.923307  2.19E+04 -1.25795E-03 -4.58450E-02 -1.60684E-02
         8  C   0.994389  -2.403270   0.476689  2.19E+04 -1.17049E-02  2.07834E-02 -4.35574E-02
         9  H  -2.904116   6.189463  -3.007972  1.84E+03 -5.76878E-03  1.36971E-03 -1.93323E-02
        10  H  -0.746856   3.374846   2.534271  1.84E+03 -7.32052E-03  9.27701E-02  9.57474E-02
        11  H  -2.354942   6.773609   0.147433  1.84E+03  6.81339E-03 -3.71783E-02 -2.68858E-02
        12  H   0.531274  -0.308301   3.989777  1.84E+03  7.96422E-03 -7.22702E-03  1.69182E-02
        13  C   0.592624  -2.626783  -2.327997  2.19E+04  1.04897E-01  6.28187E-03 -1.01499E-02
        14  H  -2.042000   1.629223  -2.870263  1.84E+03  2.55597E-02  3.82584E-02  4.34199E-02
        15  H   1.855502  -1.123753  -3.230837  1.84E+03 -2.64424E-02 -3.82912E-02  1.46759E-02
        16  H  -1.337057  -2.254212  -2.794336  1.84E+03 -6.77225E-02  1.04439E-02 -1.95994E-02
        17  H   1.245927  -4.463881  -3.181147  1.84E+03 -1.18017E-02  3.64083E-02  2.41775E-02
 ----------------------------------------------------------------------------------------------
 
 
 
 
--- Stop Module: dynamix at Fri Jan 20 18:14:36 2023 /rc=_RC_ALL_IS_WELL_ ---
*** files: SSR2.2-PSB3-CH3-C8-011.md.energies SSR2.2-PSB3-CH3-C8-011.md.xyz xmldump
    saved to directory /users/PCON0010/danilk/An-OpenMolcas2023-Inter-Tests/PSB3-CH3-Tests/FRANDOM-1/PSB3-CH3-OpenMolcas

>>> COPY GEOMETRY.txt /users/PCON0010/danilk/An-OpenMolcas2023-Inter-Tests/PSB3-CH3-Tests/FRANDOM-1/PSB3-CH3-OpenMolcas/GEOMETRY.txt

>>> SHELL /users/PCON0010/danilk/An-OpenMolcas2023-Inter-Tests/PSB3-CH3-Tests/FRANDOM-1/PSB3-CH3-OpenMolcas/GUTS/update_gamess_geo.sh

>>> END FOREACH

>>> EXPORT A = 3

>>> SHELL /users/PCON0010/danilk/Apps/gamess-2021-ESPF-REKS-LINK/rungms-dev /users/PCON0010/danilk/An-OpenMolcas2023-Inter-Tests/PSB3-CH3-Tests/FRANDOM-1/PSB3-CH3-OpenMolcas/SSR2.2-PSB3-CH3-C8-011.G.tmp.inp 01 12 12 > /users/PCON0010/danilk/An-OpenMolcas2023-Inter-Tests/PSB3-CH3-Tests/FRANDOM-1/PSB3-CH3-OpenMolcas/SSR2.2-PSB3-CH3-C8-011.G.tmp.out

>>> SHELL /users/PCON0010/danilk/An-OpenMolcas2023-Inter-Tests/PSB3-CH3-Tests/FRANDOM-1/PSB3-CH3-OpenMolcas/GUTS/update_gamess_vec.sh

>>> SHELL /users/PCON0010/danilk/An-OpenMolcas2023-Inter-Tests/PSB3-CH3-Tests/FRANDOM-1/PSB3-CH3-OpenMolcas/GUTS/get_gradient.sh

>>> SHELL /users/PCON0010/danilk/An-OpenMolcas2023-Inter-Tests/PSB3-CH3-Tests/FRANDOM-1/PSB3-CH3-OpenMolcas/GUTS/get_pot_energy.sh

>>> SHELL /users/PCON0010/danilk/An-OpenMolcas2023-Inter-Tests/PSB3-CH3-Tests/FRANDOM-1/PSB3-CH3-OpenMolcas/GUTS/get_S0_and_S1_energy.sh

>>> SHELL /users/PCON0010/danilk/An-OpenMolcas2023-Inter-Tests/PSB3-CH3-Tests/FRANDOM-1/PSB3-CH3-OpenMolcas/GUTS/get_S0_and_S1_coeff.sh

>>> COPY /users/PCON0010/danilk/An-OpenMolcas2023-Inter-Tests/PSB3-CH3-Tests/FRANDOM-1/PSB3-CH3-OpenMolcas/GRADIENT.txt .

>>> COPY /users/PCON0010/danilk/An-OpenMolcas2023-Inter-Tests/PSB3-CH3-Tests/FRANDOM-1/PSB3-CH3-OpenMolcas/POT_ENERGY.txt .

>>> COPY /users/PCON0010/danilk/An-OpenMolcas2023-Inter-Tests/PSB3-CH3-Tests/FRANDOM-1/PSB3-CH3-OpenMolcas/ROOTS_E.txt .

>>> COPY /users/PCON0010/danilk/An-OpenMolcas2023-Inter-Tests/PSB3-CH3-Tests/FRANDOM-1/PSB3-CH3-OpenMolcas/ROOTS_C.txt .

--- Start Module: surfacehop at Fri Jan 20 18:15:41 2023 ---
 
()()()()()()()()()()()()()()()()()()()()()()()()()()()()()()()()()()()()()()()()()()()()()()()()()()

                                            &SURFACEHOP

                                   only a single process is used
                       available to each process: 5.0 GB of memory, 1 thread?
                                            pid: 267793
()()()()()()()()()()()()()()()()()()()()()()()()()()()()()()()()()()()()()()()()()()()()()()()()()()
 
 OPENED BYPASS FILE ROOT COEFFICIENTS
 
 ------------------------------------------
             TULLY ALGORITHM
 ------------------------------------------
 
 OPENED BYPASS FILE ROOT ENERGIES
 Using CI vector product for WF overlap
 
 Did the density matrix exists?  T
 Did the Pre-coefficients array exists?  T
 Did the Pre-Pre-coefficients array exists?  T
 Density Matrix elements (i=1..#states):
 (3.805854213196702E-008,1.997899868273429E-021)
 (7.348771605649488E-005,1.821533717883456E-004)
 (7.348771605649949E-005,-1.821533717883404E-004)
 (0.999999961941458,0.000000000000000E+000)
 BeforeFunctionsCoefficients are:                      2 *                     2
 -0.999944630000000      -0.999950430000000      -0.999965500000000     
  1.052338000000000E-002 -9.956660000000001E-003 -8.306590000000001E-003
 -1.052338000000000E-002  9.956660000000001E-003  8.306590000000001E-003
 -0.999944630000000      -0.999950430000000      -0.999965500000000     
 Using CI vector products for sign correction/root ordering
 Using CI vector product to calculate D Matrix
 AfterFunctionsCoefficients are:                      2 *                     2
 -0.999944630000000      -0.999950430000000      -0.999965500000000     
 -1.052338000000000E-002 -9.956660000000001E-003 -8.306590000000001E-003
  1.052338000000000E-002  9.956660000000001E-003  8.306590000000001E-003
 -0.999944630000000      -0.999950430000000      -0.999965500000000     
 From input Random is Fixed at:   1.00000000000000     
 Normalized by Substep number:  5.025125628140704E-003
 executing the integration:
 Time Step is:       41.3223140000000     
 Substeps are:                    199
 Gnuplot:  5.343936047578580E-010  0.999999999465606     
  -288.920777802150       -288.764713582521       -288.764713582521     
--- Stop Module: surfacehop at Fri Jan 20 18:15:41 2023 /rc=_RC_ALL_IS_WELL_ ---
*** files: xmldump
    saved to directory /users/PCON0010/danilk/An-OpenMolcas2023-Inter-Tests/PSB3-CH3-Tests/FRANDOM-1/PSB3-CH3-OpenMolcas

>>> IF (-FILE HOP.txt)
(Skipped)

--- Start Module: dynamix at Fri Jan 20 18:15:41 2023 ---
 
()()()()()()()()()()()()()()()()()()()()()()()()()()()()()()()()()()()()()()()()()()()()()()()()()()

                                              &DYNAMIX

                                   only a single process is used
                       available to each process: 5.0 GB of memory, 1 thread?
                                            pid: 267796
()()()()()()()()()()()()()()()()()()()()()()()()()()()()()()()()()()()()()()()()()()()()()()()()()()
 
 
 *** Second step of the Velocity Verlet algorithm ***
 OPENED BYPASS FILE COORDINATES
 nAtoms_Full=                    17
 OPENED BYPASS FILE GRADIENT
 
 
 
       Velocities      (time     82.6 a.u.):
 ----------------------------------------------------------------------------------------------
       No. Atom    X          Y          Z        Mass       F(x)         F(y)         F(z)
 ----------------------------------------------------------------------------------------------
         1  H  -0.000766   0.001991   0.000521  1.84E+03 -1.79266E-02  3.68768E-02  1.59680E-02
         2  N   0.000130  -0.000218   0.000222  2.55E+04  1.98455E-02 -5.96745E-02 -2.64383E-02
         3  H   0.000085   0.000253  -0.002431  1.84E+03  1.60675E-02 -4.76365E-03  4.89157E-02
         4  C   0.000016   0.000227  -0.000117  2.19E+04 -1.43501E-03  6.51186E-02  6.72632E-02
         5  C  -0.000035  -0.000225  -0.000079  2.19E+04 -9.60528E-03 -8.44164E-02 -6.38785E-03
         6  C  -0.000014   0.000005  -0.000379  2.19E+04 -1.33552E-02  3.14478E-02 -4.28804E-02
         7  C  -0.000040  -0.000080  -0.000161  2.19E+04 -7.40773E-04 -4.69933E-02  1.07067E-02
         8  C  -0.000059  -0.000001  -0.000201  2.19E+04 -7.60246E-03  1.52383E-02 -3.66642E-02
         9  H  -0.000701   0.000997   0.002291  1.84E+03 -2.09574E-02  1.73502E-02 -6.32163E-02
        10  H  -0.000400   0.001807   0.003781  1.84E+03  5.35004E-04  2.59157E-02  2.45835E-02
        11  H   0.000233  -0.000995  -0.001181  1.84E+03  8.32186E-03 -3.00413E-02 -1.45832E-02
        12  H  -0.000276  -0.000265   0.001494  1.84E+03  6.59160E-03 -5.47319E-03 -1.19238E-02
        13  C   0.000259   0.000029  -0.000054  2.19E+04  4.30022E-02  1.33039E-02 -9.71101E-03
        14  H   0.000249   0.001362   0.002009  1.84E+03  2.25513E-02  2.56906E-02  2.86908E-02
        15  H   0.000482  -0.003185   0.000649  1.84E+03 -2.23364E-02 -1.92866E-02  7.09417E-03
        16  H  -0.003005   0.000052   0.000038  1.84E+03 -1.06937E-02 -1.96737E-04 -8.40789E-03
        17  H   0.000787   0.001569   0.001546  1.84E+03 -1.22622E-02  1.99036E-02  1.69910E-02
 ----------------------------------------------------------------------------------------------
 
 
 
 


     Final Energy at time     82.6
     ============================

     Kinetic energy       7.152675535370E-02 a.u.
     Potential Energy    -2.887647135825E+02 a.u.
     Total Energy        -2.886931868272E+02 a.u.
 OPENED BYPASS FILE NROOTS
                     2
  -288.920777802150     
  -288.764713582521     
 OPENED BYPASS FILE ROOT ENERGIES
 *** First step of the Velocity Verlet algorithm ***
 OPENED BYPASS FILE COORDINATES
 nAtoms_Full=                    17
 OPENED BYPASS FILE GRADIENT
 OPENED BYPASS FILE COORDINATES
 nAtoms_Full=                    17
 OPENED BYPASS FILE GRADIENT
 
 
 
       Old Coordinates (time     82.6 a.u.):
 ----------------------------------------------------------------------------------------------
       No. Atom    X          Y          Z        Mass       F(x)         F(y)         F(z)
 ----------------------------------------------------------------------------------------------
         1  H   2.668681  -5.998934   0.692718  1.84E+03 -1.79266E-02  3.68768E-02  1.59680E-02
         2  N   1.972781  -4.364543   1.601090  2.55E+04  1.98455E-02 -5.96745E-02 -2.64383E-02
         3  H   2.474673  -4.121999   3.325912  1.84E+03  1.60675E-02 -4.76365E-03  4.89157E-02
         4  C  -2.269232   5.335797  -1.434951  2.19E+04 -1.43501E-03  6.51186E-02  6.72632E-02
         5  C  -1.468785   2.962165  -1.256632  2.19E+04 -9.60528E-03 -8.44164E-02 -6.38785E-03
         6  C  -0.556687   2.030768   1.121233  2.19E+04 -1.33552E-02  3.14478E-02 -4.28804E-02
         7  C   0.458293  -0.183321   1.923307  2.19E+04 -7.40773E-04 -4.69933E-02  1.07067E-02
         8  C   0.994389  -2.403270   0.476689  2.19E+04 -7.60246E-03  1.52383E-02 -3.66642E-02
         9  H  -2.904116   6.189463  -3.007972  1.84E+03 -2.09574E-02  1.73502E-02 -6.32163E-02
        10  H  -0.746856   3.374846   2.534271  1.84E+03  5.35004E-04  2.59157E-02  2.45835E-02
        11  H  -2.354942   6.773609   0.147433  1.84E+03  8.32186E-03 -3.00413E-02 -1.45832E-02
        12  H   0.531274  -0.308301   3.989777  1.84E+03  6.59160E-03 -5.47319E-03 -1.19238E-02
        13  C   0.592624  -2.626783  -2.327997  2.19E+04  4.30022E-02  1.33039E-02 -9.71101E-03
        14  H  -2.042000   1.629223  -2.870263  1.84E+03  2.25513E-02  2.56906E-02  2.86908E-02
        15  H   1.855502  -1.123753  -3.230837  1.84E+03 -2.23364E-02 -1.92866E-02  7.09417E-03
        16  H  -1.337057  -2.254212  -2.794336  1.84E+03 -1.06937E-02 -1.96737E-04 -8.40789E-03
        17  H   1.245927  -4.463881  -3.181147  1.84E+03 -1.22622E-02  1.99036E-02  1.69910E-02
 ----------------------------------------------------------------------------------------------
 
 
 
 
     Molecular Dynamics specifications (time =     82.6 a.u.)
     ==========================================

     Kinetic energy         0.7153D-01 a.u.
     Total linear momentum  0.6010D-01 a.u.
     RMS deviation          0.8968D-01 Bohr
 
 
 
       New Coordinates (time    124.0 a.u.):
 ----------------------------------------------------------------------------------------------
       No. Atom    X          Y          Z        Mass       F(x)         F(y)         F(z)
 ----------------------------------------------------------------------------------------------
         1  H   2.628687  -5.899536   0.721662  1.84E+03 -1.79266E-02  3.68768E-02  1.59680E-02
         2  N   1.978822  -4.375567   1.609396  2.55E+04  1.98455E-02 -5.96745E-02 -2.64383E-02
         3  H   2.485663  -4.113756   3.248196  1.84E+03  1.60675E-02 -4.76365E-03  4.89157E-02
         4  C  -2.268638   5.347707  -1.437175  2.19E+04 -1.43501E-03  6.51186E-02  6.72632E-02
         5  C  -1.470589   2.949593  -1.260126  2.19E+04 -9.60528E-03 -8.44164E-02 -6.38785E-03
         6  C  -0.557783   2.032200   1.103881  2.19E+04 -1.33552E-02  3.14478E-02 -4.28804E-02
         7  C   0.456624  -0.188449   1.917088  2.19E+04 -7.40773E-04 -4.69933E-02  1.07067E-02
         8  C   0.991662  -2.402714   0.466961  2.19E+04 -7.60246E-03  1.52383E-02 -3.66642E-02
         9  H  -2.942811   6.238708  -2.942693  1.84E+03 -2.09574E-02  1.73502E-02 -6.32163E-02
        10  H  -0.763129   3.461540   2.701936  1.84E+03  5.35004E-04  2.59157E-02  2.45835E-02
        11  H  -2.341446   6.718518   0.091840  1.84E+03  8.32186E-03 -3.00413E-02 -1.45832E-02
        12  H   0.522913  -0.321814   4.045975  1.84E+03  6.59160E-03 -5.47319E-03 -1.19238E-02
        13  C   0.604986  -2.625079  -2.330620  2.19E+04  4.30022E-02  1.33039E-02 -9.71101E-03
        14  H  -2.021220   1.697422  -2.773895  1.84E+03  2.25513E-02  2.56906E-02  2.86908E-02
        15  H   1.865032  -1.264330  -3.200718  1.84E+03 -2.23364E-02 -1.92866E-02  7.09417E-03
        16  H  -1.466218  -2.252162  -2.796675  1.84E+03 -1.06937E-02 -1.96737E-04 -8.40789E-03
        17  H   1.272740  -4.389780  -3.109350  1.84E+03 -1.22622E-02  1.99036E-02  1.69910E-02
 ----------------------------------------------------------------------------------------------
 
 
 
 
--- Stop Module: dynamix at Fri Jan 20 18:15:41 2023 /rc=_RC_ALL_IS_WELL_ ---
*** files: SSR2.2-PSB3-CH3-C8-011.md.energies SSR2.2-PSB3-CH3-C8-011.md.xyz xmldump
    saved to directory /users/PCON0010/danilk/An-OpenMolcas2023-Inter-Tests/PSB3-CH3-Tests/FRANDOM-1/PSB3-CH3-OpenMolcas

>>> COPY GEOMETRY.txt /users/PCON0010/danilk/An-OpenMolcas2023-Inter-Tests/PSB3-CH3-Tests/FRANDOM-1/PSB3-CH3-OpenMolcas/GEOMETRY.txt

>>> SHELL /users/PCON0010/danilk/An-OpenMolcas2023-Inter-Tests/PSB3-CH3-Tests/FRANDOM-1/PSB3-CH3-OpenMolcas/GUTS/update_gamess_geo.sh

>>> END FOREACH

>>> EXPORT A = 4

>>> SHELL /users/PCON0010/danilk/Apps/gamess-2021-ESPF-REKS-LINK/rungms-dev /users/PCON0010/danilk/An-OpenMolcas2023-Inter-Tests/PSB3-CH3-Tests/FRANDOM-1/PSB3-CH3-OpenMolcas/SSR2.2-PSB3-CH3-C8-011.G.tmp.inp 01 12 12 > /users/PCON0010/danilk/An-OpenMolcas2023-Inter-Tests/PSB3-CH3-Tests/FRANDOM-1/PSB3-CH3-OpenMolcas/SSR2.2-PSB3-CH3-C8-011.G.tmp.out

>>> SHELL /users/PCON0010/danilk/An-OpenMolcas2023-Inter-Tests/PSB3-CH3-Tests/FRANDOM-1/PSB3-CH3-OpenMolcas/GUTS/update_gamess_vec.sh

>>> SHELL /users/PCON0010/danilk/An-OpenMolcas2023-Inter-Tests/PSB3-CH3-Tests/FRANDOM-1/PSB3-CH3-OpenMolcas/GUTS/get_gradient.sh

>>> SHELL /users/PCON0010/danilk/An-OpenMolcas2023-Inter-Tests/PSB3-CH3-Tests/FRANDOM-1/PSB3-CH3-OpenMolcas/GUTS/get_pot_energy.sh

>>> SHELL /users/PCON0010/danilk/An-OpenMolcas2023-Inter-Tests/PSB3-CH3-Tests/FRANDOM-1/PSB3-CH3-OpenMolcas/GUTS/get_S0_and_S1_energy.sh

>>> SHELL /users/PCON0010/danilk/An-OpenMolcas2023-Inter-Tests/PSB3-CH3-Tests/FRANDOM-1/PSB3-CH3-OpenMolcas/GUTS/get_S0_and_S1_coeff.sh

>>> COPY /users/PCON0010/danilk/An-OpenMolcas2023-Inter-Tests/PSB3-CH3-Tests/FRANDOM-1/PSB3-CH3-OpenMolcas/GRADIENT.txt .

>>> COPY /users/PCON0010/danilk/An-OpenMolcas2023-Inter-Tests/PSB3-CH3-Tests/FRANDOM-1/PSB3-CH3-OpenMolcas/POT_ENERGY.txt .

>>> COPY /users/PCON0010/danilk/An-OpenMolcas2023-Inter-Tests/PSB3-CH3-Tests/FRANDOM-1/PSB3-CH3-OpenMolcas/ROOTS_E.txt .

>>> COPY /users/PCON0010/danilk/An-OpenMolcas2023-Inter-Tests/PSB3-CH3-Tests/FRANDOM-1/PSB3-CH3-OpenMolcas/ROOTS_C.txt .

--- Start Module: surfacehop at Fri Jan 20 18:16:43 2023 ---
 
()()()()()()()()()()()()()()()()()()()()()()()()()()()()()()()()()()()()()()()()()()()()()()()()()()

                                            &SURFACEHOP

                                   only a single process is used
                       available to each process: 5.0 GB of memory, 1 thread?
                                            pid: 268223
()()()()()()()()()()()()()()()()()()()()()()()()()()()()()()()()()()()()()()()()()()()()()()()()()()
 
 OPENED BYPASS FILE ROOT COEFFICIENTS
 
 ------------------------------------------
             TULLY ALGORITHM
 ------------------------------------------
 
 OPENED BYPASS FILE ROOT ENERGIES
 Using CI vector product for WF overlap
 
 Did the density matrix exists?  T
 Did the Pre-coefficients array exists?  T
 Did the Pre-Pre-coefficients array exists?  T
 Density Matrix elements (i=1..#states):
 (5.343936047578580E-010,-1.090106186803261E-023)
 (-9.768100042279806E-006,2.122071116474713E-005)
 (-9.768100042278834E-006,-2.122071116474527E-005)
 (0.999999999465606,0.000000000000000E+000)
 BeforeFunctionsCoefficients are:                      2 *                     2
 -0.999958560000000      -0.999944630000000      -0.999950430000000     
 -9.103399999999999E-003 -1.052338000000000E-002 -9.956660000000001E-003
  9.103399999999999E-003  1.052338000000000E-002  9.956660000000001E-003
 -0.999958560000000      -0.999944630000000      -0.999950430000000     
 Using CI vector products for sign correction/root ordering
 Using CI vector product to calculate D Matrix
 AfterFunctionsCoefficients are:                      2 *                     2
 -0.999958560000000      -0.999944630000000      -0.999950430000000     
 -9.103399999999999E-003 -1.052338000000000E-002 -9.956660000000001E-003
  9.103399999999999E-003  1.052338000000000E-002  9.956660000000001E-003
 -0.999958560000000      -0.999944630000000      -0.999950430000000     
 From input Random is Fixed at:   1.00000000000000     
 Normalized by Substep number:  5.025125628140704E-003
 executing the integration:
 Time Step is:       41.3223140000000     
 Substeps are:                    199
 Gnuplot:  1.097312416767685E-007  0.999999890268758     
  -288.916217824135       -288.762997923319       -288.762997923319     
--- Stop Module: surfacehop at Fri Jan 20 18:16:44 2023 /rc=_RC_ALL_IS_WELL_ ---
*** files: xmldump
    saved to directory /users/PCON0010/danilk/An-OpenMolcas2023-Inter-Tests/PSB3-CH3-Tests/FRANDOM-1/PSB3-CH3-OpenMolcas

>>> IF (-FILE HOP.txt)
(Skipped)

--- Start Module: dynamix at Fri Jan 20 18:16:44 2023 ---
 
()()()()()()()()()()()()()()()()()()()()()()()()()()()()()()()()()()()()()()()()()()()()()()()()()()

                                              &DYNAMIX

                                   only a single process is used
                       available to each process: 5.0 GB of memory, 1 thread?
                                            pid: 268226
()()()()()()()()()()()()()()()()()()()()()()()()()()()()()()()()()()()()()()()()()()()()()()()()()()
 
 
 *** Second step of the Velocity Verlet algorithm ***
 OPENED BYPASS FILE COORDINATES
 nAtoms_Full=                    17
 OPENED BYPASS FILE GRADIENT
 
 
 
       Velocities      (time    124.0 a.u.):
 ----------------------------------------------------------------------------------------------
       No. Atom    X          Y          Z        Mass       F(x)         F(y)         F(z)
 ----------------------------------------------------------------------------------------------
         1  H  -0.000972   0.002349   0.000637  1.84E+03 -3.81401E-04 -5.06147E-03 -5.64376E-03
         2  N   0.000130  -0.000281   0.000147  2.55E+04 -1.94728E-02 -1.79669E-02 -6.62150E-02
         3  H   0.000641   0.000242  -0.000717  1.84E+03  3.33669E-02  3.79826E-03  1.03437E-01
         4  C   0.000022   0.000319   0.000006  2.19E+04  8.30304E-03  3.20581E-02  6.37401E-02
         5  C  -0.000049  -0.000344  -0.000068  2.19E+04 -5.97688E-03 -4.26112E-02  1.73988E-02
         6  C  -0.000042   0.000100  -0.000404  2.19E+04 -1.60959E-02  6.88960E-02  1.68822E-02
         7  C  -0.000042  -0.000165  -0.000124  2.19E+04 -2.01132E-03 -4.35678E-02  2.82333E-02
         8  C  -0.000068   0.000021  -0.000260  2.19E+04 -2.28052E-03  8.27549E-03 -2.65583E-02
         9  H  -0.001241   0.001432   0.000703  1.84E+03 -2.70527E-02  2.13710E-02 -7.79492E-02
        10  H  -0.000324   0.001883   0.003722  1.84E+03  6.19426E-03 -1.91560E-02 -2.98535E-02
        11  H   0.000433  -0.001483  -0.001259  1.84E+03  9.46998E-03 -1.32770E-02  7.71521E-03
        12  H  -0.000139  -0.000373   0.001001  1.84E+03  5.62699E-03 -4.10738E-03 -3.19120E-02
        13  C   0.000280   0.000057  -0.000058  2.19E+04 -1.99307E-02  1.70355E-02  5.66294E-03
        14  H   0.000652   0.001644   0.002312  1.84E+03  1.33034E-02 -5.39208E-04 -1.77311E-03
        15  H   0.000145  -0.003284   0.000648  1.84E+03 -7.65729E-03  1.04703E-02 -7.21365E-03
        16  H  -0.002752  -0.000033  -0.000070  1.84E+03  3.32599E-02 -7.37204E-03 -1.21113E-03
        17  H   0.000551   0.001700   0.001797  1.84E+03 -8.66506E-03 -8.24563E-03  5.26015E-03
 ----------------------------------------------------------------------------------------------
 
 
 
 


     Final Energy at time    124.0
     ============================

     Kinetic energy       7.083499663544E-02 a.u.
     Potential Energy    -2.887629979233E+02 a.u.
     Total Energy        -2.886921629267E+02 a.u.
 OPENED BYPASS FILE NROOTS
                     2
  -288.916217824135     
  -288.762997923319     
 OPENED BYPASS FILE ROOT ENERGIES
 *** First step of the Velocity Verlet algorithm ***
 OPENED BYPASS FILE COORDINATES
 nAtoms_Full=                    17
 OPENED BYPASS FILE GRADIENT
 OPENED BYPASS FILE COORDINATES
 nAtoms_Full=                    17
 OPENED BYPASS FILE GRADIENT
 
 
 
       Old Coordinates (time    124.0 a.u.):
 ----------------------------------------------------------------------------------------------
       No. Atom    X          Y          Z        Mass       F(x)         F(y)         F(z)
 ----------------------------------------------------------------------------------------------
         1  H   2.628687  -5.899536   0.721662  1.84E+03 -3.81401E-04 -5.06147E-03 -5.64376E-03
         2  N   1.978822  -4.375567   1.609396  2.55E+04 -1.94728E-02 -1.79669E-02 -6.62150E-02
         3  H   2.485663  -4.113756   3.248196  1.84E+03  3.33669E-02  3.79826E-03  1.03437E-01
         4  C  -2.268638   5.347707  -1.437175  2.19E+04  8.30304E-03  3.20581E-02  6.37401E-02
         5  C  -1.470589   2.949593  -1.260126  2.19E+04 -5.97688E-03 -4.26112E-02  1.73988E-02
         6  C  -0.557783   2.032200   1.103881  2.19E+04 -1.60959E-02  6.88960E-02  1.68822E-02
         7  C   0.456624  -0.188449   1.917088  2.19E+04 -2.01132E-03 -4.35678E-02  2.82333E-02
         8  C   0.991662  -2.402714   0.466961  2.19E+04 -2.28052E-03  8.27549E-03 -2.65583E-02
         9  H  -2.942811   6.238708  -2.942693  1.84E+03 -2.70527E-02  2.13710E-02 -7.79492E-02
        10  H  -0.763129   3.461540   2.701936  1.84E+03  6.19426E-03 -1.91560E-02 -2.98535E-02
        11  H  -2.341446   6.718518   0.091840  1.84E+03  9.46998E-03 -1.32770E-02  7.71521E-03
        12  H   0.522913  -0.321814   4.045975  1.84E+03  5.62699E-03 -4.10738E-03 -3.19120E-02
        13  C   0.604986  -2.625079  -2.330620  2.19E+04 -1.99307E-02  1.70355E-02  5.66294E-03
        14  H  -2.021220   1.697422  -2.773895  1.84E+03  1.33034E-02 -5.39208E-04 -1.77311E-03
        15  H   1.865032  -1.264330  -3.200718  1.84E+03 -7.65729E-03  1.04703E-02 -7.21365E-03
        16  H  -1.466218  -2.252162  -2.796675  1.84E+03  3.32599E-02 -7.37204E-03 -1.21113E-03
        17  H   1.272740  -4.389780  -3.109350  1.84E+03 -8.66506E-03 -8.24563E-03  5.26015E-03
 ----------------------------------------------------------------------------------------------
 
 
 
 
     Molecular Dynamics specifications (time =    124.0 a.u.)
     ==========================================

     Kinetic energy         0.7083D-01 a.u.
     Total linear momentum  0.6010D-01 a.u.
     RMS deviation          0.8013D-01 Bohr
 
 
 
       New Coordinates (time    165.3 a.u.):
 ----------------------------------------------------------------------------------------------
       No. Atom    X          Y          Z        Mass       F(x)         F(y)         F(z)
 ----------------------------------------------------------------------------------------------
         1  H   2.588338  -5.804842   0.745360  1.84E+03 -3.81401E-04 -5.06147E-03 -5.64376E-03
         2  N   1.983559  -4.387793   1.613273  2.55E+04 -1.94728E-02 -1.79669E-02 -6.62150E-02
         3  H   2.527666  -4.101982   3.266619  1.84E+03  3.33669E-02  3.79826E-03  1.03437E-01
         4  C  -2.267396   5.362120  -1.434424  2.19E+04  8.30304E-03  3.20581E-02  6.37401E-02
         5  C  -1.472860   2.933695  -1.262262  2.19E+04 -5.97688E-03 -4.26112E-02  1.73988E-02
         6  C  -0.560135   2.039010   1.087846  2.19E+04 -1.60959E-02  6.88960E-02  1.68822E-02
         7  C   0.454799  -0.196978   1.913072  2.19E+04 -2.01132E-03 -4.35678E-02  2.82333E-02
         8  C   0.988757  -2.401511   0.455160  2.19E+04 -2.28052E-03  8.27549E-03 -2.65583E-02
         9  H  -3.006650   6.307815  -2.949864  1.84E+03 -2.70527E-02  2.13710E-02 -7.79492E-02
        10  H  -0.773644   3.530429   2.841853  1.84E+03  6.19426E-03 -1.91560E-02 -2.98535E-02
        11  H  -2.319148   6.651087   0.043417  1.84E+03  9.46998E-03 -1.32770E-02  7.71521E-03
        12  H   0.519782  -0.339145   4.072512  1.84E+03  5.62699E-03 -4.10738E-03 -3.19120E-02
        13  C   0.615792  -2.622046  -2.332801  2.19E+04 -1.99307E-02  1.70355E-02  5.66294E-03
        14  H  -1.988076   1.765121  -2.679176  1.84E+03  1.33034E-02 -5.39208E-04 -1.77311E-03
        15  H   1.867445  -1.395175  -3.177304  1.84E+03 -7.65729E-03  1.04703E-02 -7.21365E-03
        16  H  -1.564465  -2.256964  -2.800140  1.84E+03  3.32599E-02 -7.37204E-03 -1.21113E-03
        17  H   1.291500  -4.323344  -3.032664  1.84E+03 -8.66506E-03 -8.24563E-03  5.26015E-03
 ----------------------------------------------------------------------------------------------
 
 
 
 
--- Stop Module: dynamix at Fri Jan 20 18:16:44 2023 /rc=_RC_ALL_IS_WELL_ ---
*** files: SSR2.2-PSB3-CH3-C8-011.md.energies SSR2.2-PSB3-CH3-C8-011.md.xyz xmldump
    saved to directory /users/PCON0010/danilk/An-OpenMolcas2023-Inter-Tests/PSB3-CH3-Tests/FRANDOM-1/PSB3-CH3-OpenMolcas

>>> COPY GEOMETRY.txt /users/PCON0010/danilk/An-OpenMolcas2023-Inter-Tests/PSB3-CH3-Tests/FRANDOM-1/PSB3-CH3-OpenMolcas/GEOMETRY.txt

>>> SHELL /users/PCON0010/danilk/An-OpenMolcas2023-Inter-Tests/PSB3-CH3-Tests/FRANDOM-1/PSB3-CH3-OpenMolcas/GUTS/update_gamess_geo.sh

>>> END FOREACH

>>> EXPORT A = 5

>>> SHELL /users/PCON0010/danilk/Apps/gamess-2021-ESPF-REKS-LINK/rungms-dev /users/PCON0010/danilk/An-OpenMolcas2023-Inter-Tests/PSB3-CH3-Tests/FRANDOM-1/PSB3-CH3-OpenMolcas/SSR2.2-PSB3-CH3-C8-011.G.tmp.inp 01 12 12 > /users/PCON0010/danilk/An-OpenMolcas2023-Inter-Tests/PSB3-CH3-Tests/FRANDOM-1/PSB3-CH3-OpenMolcas/SSR2.2-PSB3-CH3-C8-011.G.tmp.out

>>> SHELL /users/PCON0010/danilk/An-OpenMolcas2023-Inter-Tests/PSB3-CH3-Tests/FRANDOM-1/PSB3-CH3-OpenMolcas/GUTS/update_gamess_vec.sh

>>> SHELL /users/PCON0010/danilk/An-OpenMolcas2023-Inter-Tests/PSB3-CH3-Tests/FRANDOM-1/PSB3-CH3-OpenMolcas/GUTS/get_gradient.sh

>>> SHELL /users/PCON0010/danilk/An-OpenMolcas2023-Inter-Tests/PSB3-CH3-Tests/FRANDOM-1/PSB3-CH3-OpenMolcas/GUTS/get_pot_energy.sh

>>> SHELL /users/PCON0010/danilk/An-OpenMolcas2023-Inter-Tests/PSB3-CH3-Tests/FRANDOM-1/PSB3-CH3-OpenMolcas/GUTS/get_S0_and_S1_energy.sh

>>> SHELL /users/PCON0010/danilk/An-OpenMolcas2023-Inter-Tests/PSB3-CH3-Tests/FRANDOM-1/PSB3-CH3-OpenMolcas/GUTS/get_S0_and_S1_coeff.sh

>>> COPY /users/PCON0010/danilk/An-OpenMolcas2023-Inter-Tests/PSB3-CH3-Tests/FRANDOM-1/PSB3-CH3-OpenMolcas/GRADIENT.txt .

>>> COPY /users/PCON0010/danilk/An-OpenMolcas2023-Inter-Tests/PSB3-CH3-Tests/FRANDOM-1/PSB3-CH3-OpenMolcas/POT_ENERGY.txt .

>>> COPY /users/PCON0010/danilk/An-OpenMolcas2023-Inter-Tests/PSB3-CH3-Tests/FRANDOM-1/PSB3-CH3-OpenMolcas/ROOTS_E.txt .

>>> COPY /users/PCON0010/danilk/An-OpenMolcas2023-Inter-Tests/PSB3-CH3-Tests/FRANDOM-1/PSB3-CH3-OpenMolcas/ROOTS_C.txt .

--- Start Module: surfacehop at Fri Jan 20 18:17:47 2023 ---
 
()()()()()()()()()()()()()()()()()()()()()()()()()()()()()()()()()()()()()()()()()()()()()()()()()()

                                            &SURFACEHOP

                                   only a single process is used
                       available to each process: 5.0 GB of memory, 1 thread?
                                            pid: 268995
()()()()()()()()()()()()()()()()()()()()()()()()()()()()()()()()()()()()()()()()()()()()()()()()()()
 
 OPENED BYPASS FILE ROOT COEFFICIENTS
 
 ------------------------------------------
             TULLY ALGORITHM
 ------------------------------------------
 
 OPENED BYPASS FILE ROOT ENERGIES
 Using CI vector product for WF overlap
 
 Did the density matrix exists?  T
 Did the Pre-coefficients array exists?  T
 Did the Pre-Pre-coefficients array exists?  T
 Density Matrix elements (i=1..#states):
 (1.097312416767685E-007,-2.520840333133456E-021)
 (-1.627098941699106E-004,-2.902611195475141E-004)
 (-1.627098941699005E-004,2.902611195475136E-004)
 (0.999999890268758,0.000000000000000E+000)
 BeforeFunctionsCoefficients are:                      2 *                     2
 -0.999991590000000      -0.999958560000000      -0.999944630000000     
 -4.101170000000000E-003 -9.103399999999999E-003 -1.052338000000000E-002
  4.101170000000000E-003  9.103399999999999E-003  1.052338000000000E-002
 -0.999991590000000      -0.999958560000000      -0.999944630000000     
 Using CI vector products for sign correction/root ordering
 Using CI vector product to calculate D Matrix
 AfterFunctionsCoefficients are:                      2 *                     2
 -0.999991590000000      -0.999958560000000      -0.999944630000000     
 -4.101170000000000E-003 -9.103399999999999E-003 -1.052338000000000E-002
  4.101170000000000E-003  9.103399999999999E-003  1.052338000000000E-002
 -0.999991590000000      -0.999958560000000      -0.999944630000000     
 From input Random is Fixed at:   1.00000000000000     
 Normalized by Substep number:  5.025125628140704E-003
 executing the integration:
 Time Step is:       41.3223140000000     
 Substeps are:                    199
 Gnuplot:  1.018421894153405E-006  0.999998981578106     
  -288.891380673198       -288.741301934654       -288.741301934654     
--- Stop Module: surfacehop at Fri Jan 20 18:17:47 2023 /rc=_RC_ALL_IS_WELL_ ---
*** files: xmldump
    saved to directory /users/PCON0010/danilk/An-OpenMolcas2023-Inter-Tests/PSB3-CH3-Tests/FRANDOM-1/PSB3-CH3-OpenMolcas

>>> IF (-FILE HOP.txt)
(Skipped)

--- Start Module: dynamix at Fri Jan 20 18:17:47 2023 ---
 
()()()()()()()()()()()()()()()()()()()()()()()()()()()()()()()()()()()()()()()()()()()()()()()()()()

                                              &DYNAMIX

                                   only a single process is used
                       available to each process: 5.0 GB of memory, 1 thread?
                                            pid: 268998
()()()()()()()()()()()()()()()()()()()()()()()()()()()()()()()()()()()()()()()()()()()()()()()()()()
 
 
 *** Second step of the Velocity Verlet algorithm ***
 OPENED BYPASS FILE COORDINATES
 nAtoms_Full=                    17
 OPENED BYPASS FILE GRADIENT
 
 
 
       Velocities      (time    165.3 a.u.):
 ----------------------------------------------------------------------------------------------
       No. Atom    X          Y          Z        Mass       F(x)         F(y)         F(z)
 ----------------------------------------------------------------------------------------------
         1  H  -0.000701   0.001583   0.000140  1.84E+03  2.44669E-02 -6.30377E-02 -3.85814E-02
         2  N   0.000080  -0.000255   0.000079  2.55E+04 -4.32612E-02  5.03060E-02 -1.87632E-02
         3  H   0.001326   0.000299   0.001352  1.84E+03  2.75040E-02  1.27437E-03  8.06116E-02
         4  C   0.000031   0.000358   0.000077  2.19E+04  1.05140E-03  1.02200E-02  1.14245E-02
         5  C  -0.000052  -0.000371   0.000002  2.19E+04  3.47089E-03  1.42275E-02  5.65815E-02
         6  C  -0.000070   0.000237  -0.000341  2.19E+04 -1.39311E-02  7.63712E-02  5.01317E-02
         7  C  -0.000048  -0.000241  -0.000065  2.19E+04 -4.47049E-03 -3.68529E-02  3.40176E-02
         8  C  -0.000067   0.000032  -0.000299  2.19E+04  2.99632E-03  2.92195E-03 -1.41474E-02
         9  H  -0.001721   0.001723  -0.000760  1.84E+03 -1.56149E-02  4.47647E-03 -5.21276E-02
        10  H  -0.000161   0.001242   0.002747  1.84E+03  8.35267E-03 -3.77690E-02 -5.67996E-02
        11  H   0.000653  -0.001502  -0.000749  1.84E+03  1.00968E-02  1.15133E-02  3.75752E-02
        12  H  -0.000020  -0.000455   0.000184  1.84E+03  4.97173E-03 -3.15763E-03 -4.07377E-02
        13  C   0.000192   0.000089  -0.000023  2.19E+04 -7.38936E-02  1.62529E-02  3.15647E-02
        14  H   0.000776   0.001193   0.001754  1.84E+03 -2.31970E-03 -3.96154E-02 -4.78300E-02
        15  H   0.000237  -0.002661   0.000271  1.84E+03  1.58633E-02  4.49012E-02 -2.63299E-02
        16  H  -0.001738  -0.000231  -0.000068  1.84E+03  5.68792E-02 -1.02007E-02  1.40840E-03
        17  H   0.000430   0.001137   0.001766  1.84E+03 -2.16215E-03 -4.18315E-02 -7.99839E-03
 ----------------------------------------------------------------------------------------------
 
 
 
 


     Final Energy at time    165.3
     ============================

     Kinetic energy       5.024848769912E-02 a.u.
     Potential Energy    -2.887413019347E+02 a.u.
     Total Energy        -2.886910534470E+02 a.u.
 OPENED BYPASS FILE NROOTS
                     2
  -288.891380673198     
  -288.741301934654     
 OPENED BYPASS FILE ROOT ENERGIES
 *** First step of the Velocity Verlet algorithm ***
 OPENED BYPASS FILE COORDINATES
 nAtoms_Full=                    17
 OPENED BYPASS FILE GRADIENT
 OPENED BYPASS FILE COORDINATES
 nAtoms_Full=                    17
 OPENED BYPASS FILE GRADIENT
 
 
 
       Old Coordinates (time    165.3 a.u.):
 ----------------------------------------------------------------------------------------------
       No. Atom    X          Y          Z        Mass       F(x)         F(y)         F(z)
 ----------------------------------------------------------------------------------------------
         1  H   2.588338  -5.804842   0.745360  1.84E+03  2.44669E-02 -6.30377E-02 -3.85814E-02
         2  N   1.983559  -4.387793   1.613273  2.55E+04 -4.32612E-02  5.03060E-02 -1.87632E-02
         3  H   2.527666  -4.101982   3.266619  1.84E+03  2.75040E-02  1.27437E-03  8.06116E-02
         4  C  -2.267396   5.362120  -1.434424  2.19E+04  1.05140E-03  1.02200E-02  1.14245E-02
         5  C  -1.472860   2.933695  -1.262262  2.19E+04  3.47089E-03  1.42275E-02  5.65815E-02
         6  C  -0.560135   2.039010   1.087846  2.19E+04 -1.39311E-02  7.63712E-02  5.01317E-02
         7  C   0.454799  -0.196978   1.913072  2.19E+04 -4.47049E-03 -3.68529E-02  3.40176E-02
         8  C   0.988757  -2.401511   0.455160  2.19E+04  2.99632E-03  2.92195E-03 -1.41474E-02
         9  H  -3.006650   6.307815  -2.949864  1.84E+03 -1.56149E-02  4.47647E-03 -5.21276E-02
        10  H  -0.773644   3.530429   2.841853  1.84E+03  8.35267E-03 -3.77690E-02 -5.67996E-02
        11  H  -2.319148   6.651087   0.043417  1.84E+03  1.00968E-02  1.15133E-02  3.75752E-02
        12  H   0.519782  -0.339145   4.072512  1.84E+03  4.97173E-03 -3.15763E-03 -4.07377E-02
        13  C   0.615792  -2.622046  -2.332801  2.19E+04 -7.38936E-02  1.62529E-02  3.15647E-02
        14  H  -1.988076   1.765121  -2.679176  1.84E+03 -2.31970E-03 -3.96154E-02 -4.78300E-02
        15  H   1.867445  -1.395175  -3.177304  1.84E+03  1.58633E-02  4.49012E-02 -2.63299E-02
        16  H  -1.564465  -2.256964  -2.800140  1.84E+03  5.68792E-02 -1.02007E-02  1.40840E-03
        17  H   1.291500  -4.323344  -3.032664  1.84E+03 -2.16215E-03 -4.18315E-02 -7.99839E-03
 ----------------------------------------------------------------------------------------------
 
 
 
 
     Molecular Dynamics specifications (time =    165.3 a.u.)
     ==========================================

     Kinetic energy         0.5025D-01 a.u.
     Total linear momentum  0.6010D-01 a.u.
     RMS deviation          0.6208D-01 Bohr
 
 
 
       New Coordinates (time    206.6 a.u.):
 ----------------------------------------------------------------------------------------------
       No. Atom    X          Y          Z        Mass       F(x)         F(y)         F(z)
 ----------------------------------------------------------------------------------------------
         1  H   2.570730  -5.768739   0.733199  1.84E+03  2.44669E-02 -6.30377E-02 -3.85814E-02
         2  N   1.985403  -4.396654   1.615895  2.55E+04 -4.32612E-02  5.03060E-02 -1.87632E-02
         3  H   2.595232  -4.089024   3.359966  1.84E+03  2.75040E-02  1.27437E-03  8.06116E-02
         4  C  -2.266071   5.377330  -1.430782  2.19E+04  1.05140E-03  1.02200E-02  1.14245E-02
         5  C  -1.474860   2.918907  -1.259980  2.19E+04  3.47089E-03  1.42275E-02  5.65815E-02
         6  C  -0.563575   2.051781   1.075725  2.19E+04 -1.39311E-02  7.63712E-02  5.01317E-02
         7  C   0.452624  -0.208384   1.911712  2.19E+04 -4.47049E-03 -3.68529E-02  3.40176E-02
         8  C   0.986086  -2.400081   0.442255  2.19E+04  2.99632E-03  2.92195E-03 -1.41474E-02
         9  H  -3.085002   6.381084  -3.005485  1.84E+03 -1.56149E-02  4.47647E-03 -5.21276E-02
        10  H  -0.776396   3.564213   2.928978  1.84E+03  8.35267E-03 -3.77690E-02 -5.67996E-02
        11  H  -2.287466   6.594357   0.029919  1.84E+03  1.00968E-02  1.15133E-02  3.75752E-02
        12  H   0.521273  -0.359411   4.061185  1.84E+03  4.97173E-03 -3.15763E-03 -4.07377E-02
        13  C   0.620830  -2.617744  -2.332518  2.19E+04 -7.38936E-02  1.62529E-02  3.15647E-02
        14  H  -1.957088   1.795999  -2.628911  1.84E+03 -2.31970E-03 -3.96154E-02 -4.78300E-02
        15  H   1.884603  -1.484287  -3.178362  1.84E+03  1.58633E-02  4.49012E-02 -2.63299E-02
        16  H  -1.609846  -2.271247  -2.802295  1.84E+03  5.68792E-02 -1.02007E-02  1.40840E-03
        17  H   1.308250  -4.295787  -2.963412  1.84E+03 -2.16215E-03 -4.18315E-02 -7.99839E-03
 ----------------------------------------------------------------------------------------------
 
 
 
 
--- Stop Module: dynamix at Fri Jan 20 18:17:47 2023 /rc=_RC_ALL_IS_WELL_ ---
*** files: SSR2.2-PSB3-CH3-C8-011.md.energies SSR2.2-PSB3-CH3-C8-011.md.xyz xmldump
    saved to directory /users/PCON0010/danilk/An-OpenMolcas2023-Inter-Tests/PSB3-CH3-Tests/FRANDOM-1/PSB3-CH3-OpenMolcas

>>> COPY GEOMETRY.txt /users/PCON0010/danilk/An-OpenMolcas2023-Inter-Tests/PSB3-CH3-Tests/FRANDOM-1/PSB3-CH3-OpenMolcas/GEOMETRY.txt

>>> SHELL /users/PCON0010/danilk/An-OpenMolcas2023-Inter-Tests/PSB3-CH3-Tests/FRANDOM-1/PSB3-CH3-OpenMolcas/GUTS/update_gamess_geo.sh

>>> END FOREACH

>>> EXPORT A = 6

>>> SHELL /users/PCON0010/danilk/Apps/gamess-2021-ESPF-REKS-LINK/rungms-dev /users/PCON0010/danilk/An-OpenMolcas2023-Inter-Tests/PSB3-CH3-Tests/FRANDOM-1/PSB3-CH3-OpenMolcas/SSR2.2-PSB3-CH3-C8-011.G.tmp.inp 01 12 12 > /users/PCON0010/danilk/An-OpenMolcas2023-Inter-Tests/PSB3-CH3-Tests/FRANDOM-1/PSB3-CH3-OpenMolcas/SSR2.2-PSB3-CH3-C8-011.G.tmp.out

>>> SHELL /users/PCON0010/danilk/An-OpenMolcas2023-Inter-Tests/PSB3-CH3-Tests/FRANDOM-1/PSB3-CH3-OpenMolcas/GUTS/update_gamess_vec.sh

>>> SHELL /users/PCON0010/danilk/An-OpenMolcas2023-Inter-Tests/PSB3-CH3-Tests/FRANDOM-1/PSB3-CH3-OpenMolcas/GUTS/get_gradient.sh

>>> SHELL /users/PCON0010/danilk/An-OpenMolcas2023-Inter-Tests/PSB3-CH3-Tests/FRANDOM-1/PSB3-CH3-OpenMolcas/GUTS/get_pot_energy.sh

>>> SHELL /users/PCON0010/danilk/An-OpenMolcas2023-Inter-Tests/PSB3-CH3-Tests/FRANDOM-1/PSB3-CH3-OpenMolcas/GUTS/get_S0_and_S1_energy.sh

>>> SHELL /users/PCON0010/danilk/An-OpenMolcas2023-Inter-Tests/PSB3-CH3-Tests/FRANDOM-1/PSB3-CH3-OpenMolcas/GUTS/get_S0_and_S1_coeff.sh

>>> COPY /users/PCON0010/danilk/An-OpenMolcas2023-Inter-Tests/PSB3-CH3-Tests/FRANDOM-1/PSB3-CH3-OpenMolcas/GRADIENT.txt .

>>> COPY /users/PCON0010/danilk/An-OpenMolcas2023-Inter-Tests/PSB3-CH3-Tests/FRANDOM-1/PSB3-CH3-OpenMolcas/POT_ENERGY.txt .

>>> COPY /users/PCON0010/danilk/An-OpenMolcas2023-Inter-Tests/PSB3-CH3-Tests/FRANDOM-1/PSB3-CH3-OpenMolcas/ROOTS_E.txt .

>>> COPY /users/PCON0010/danilk/An-OpenMolcas2023-Inter-Tests/PSB3-CH3-Tests/FRANDOM-1/PSB3-CH3-OpenMolcas/ROOTS_C.txt .

--- Start Module: surfacehop at Fri Jan 20 18:19:26 2023 ---
 
()()()()()()()()()()()()()()()()()()()()()()()()()()()()()()()()()()()()()()()()()()()()()()()()()()

                                            &SURFACEHOP

                                   only a single process is used
                       available to each process: 5.0 GB of memory, 1 thread?
                                            pid: 269508
()()()()()()()()()()()()()()()()()()()()()()()()()()()()()()()()()()()()()()()()()()()()()()()()()()
 
 OPENED BYPASS FILE ROOT COEFFICIENTS
 
 ------------------------------------------
             TULLY ALGORITHM
 ------------------------------------------
 
 OPENED BYPASS FILE ROOT ENERGIES
 Using CI vector product for WF overlap
 
 Did the density matrix exists?  T
 Did the Pre-coefficients array exists?  T
 Did the Pre-Pre-coefficients array exists?  T
 Density Matrix elements (i=1..#states):
 (1.018421894153405E-006,-3.568519320379960E-020)
 (-4.025656771687966E-004,-9.292604334427648E-004)
 (-4.025656771687846E-004,9.292604334427822E-004)
 (0.999998981578106,0.000000000000000E+000)
 BeforeFunctionsCoefficients are:                      2 *                     2
 -0.999985350000000      -0.999991590000000      -0.999958560000000     
  5.413160000000000E-003 -4.101170000000000E-003 -9.103399999999999E-003
 -5.413160000000000E-003  4.101170000000000E-003  9.103399999999999E-003
 -0.999985350000000      -0.999991590000000      -0.999958560000000     
 Using CI vector products for sign correction/root ordering
 Using CI vector product to calculate D Matrix
 AfterFunctionsCoefficients are:                      2 *                     2
 -0.999985350000000      -0.999991590000000      -0.999958560000000     
 -5.413160000000000E-003 -4.101170000000000E-003 -9.103399999999999E-003
  5.413160000000000E-003  4.101170000000000E-003  9.103399999999999E-003
 -0.999985350000000      -0.999991590000000      -0.999958560000000     
 From input Random is Fixed at:   1.00000000000000     
 Normalized by Substep number:  5.025125628140704E-003
 executing the integration:
 Time Step is:       41.3223140000000     
 Substeps are:                    199
 Gnuplot:  3.279165883450009E-007  0.999999672083412     
  -288.869525446692       -288.722482428085       -288.722482428085     
--- Stop Module: surfacehop at Fri Jan 20 18:19:38 2023 /rc=_RC_ALL_IS_WELL_ ---
*** files: xmldump
    saved to directory /users/PCON0010/danilk/An-OpenMolcas2023-Inter-Tests/PSB3-CH3-Tests/FRANDOM-1/PSB3-CH3-OpenMolcas
--- Module surfacehop spent 12 seconds ---

>>> IF (-FILE HOP.txt)
(Skipped)

--- Start Module: dynamix at Fri Jan 20 18:19:38 2023 ---
 
()()()()()()()()()()()()()()()()()()()()()()()()()()()()()()()()()()()()()()()()()()()()()()()()()()

                                              &DYNAMIX

                                   only a single process is used
                       available to each process: 5.0 GB of memory, 1 thread?
                                            pid: 269537
()()()()()()()()()()()()()()()()()()()()()()()()()()()()()()()()()()()()()()()()()()()()()()()()()()
 
 
 *** Second step of the Velocity Verlet algorithm ***
 OPENED BYPASS FILE COORDINATES
 nAtoms_Full=                    17
 OPENED BYPASS FILE GRADIENT
 
 
 
       Velocities      (time    206.6 a.u.):
 ----------------------------------------------------------------------------------------------
       No. Atom    X          Y          Z        Mass       F(x)         F(y)         F(z)
 ----------------------------------------------------------------------------------------------
         1  H  -0.000031  -0.000097  -0.000877  1.84E+03  3.51349E-02 -8.63311E-02 -5.18067E-02
         2  N   0.000015  -0.000142   0.000106  2.55E+04 -3.62556E-02  8.99689E-02  5.29644E-02
         3  H   0.001699   0.000208   0.002410  1.84E+03  5.68028E-03 -9.38442E-03  1.34647E-02
         4  C   0.000019   0.000367   0.000044  2.19E+04 -1.38714E-02 -1.23620E-03 -4.70747E-02
         5  C  -0.000040  -0.000302   0.000134  2.19E+04  9.32690E-03  5.92813E-02  8.37584E-02
         6  C  -0.000092   0.000375  -0.000229  2.19E+04 -9.62153E-03  6.95589E-02  6.78749E-02
         7  C  -0.000059  -0.000304  -0.000006  2.19E+04 -7.19948E-03 -2.91020E-02  2.85665E-02
         8  C  -0.000058   0.000035  -0.000312  2.19E+04  7.33544E-03  7.82023E-04 -2.30380E-05
         9  H  -0.001862   0.001574  -0.001498  1.84E+03  3.02805E-03 -1.76728E-02 -1.35272E-02
        10  H   0.000031   0.000335   0.001344  1.84E+03  8.68869E-03 -4.29166E-02 -6.79574E-02
        11  H   0.000881  -0.001009   0.000351  1.84E+03  1.01688E-02  3.23358E-02  6.02815E-02
        12  H   0.000088  -0.000520  -0.000710  1.84E+03  4.59671E-03 -2.60128E-03 -3.87548E-02
        13  C   0.000026   0.000116   0.000051  2.19E+04 -1.01927E-01  1.30619E-02  4.64461E-02
        14  H   0.000597  -0.000017   0.000297  1.84E+03 -1.36189E-02 -6.79906E-02 -8.17574E-02
        15  H   0.000768  -0.001431  -0.000458  1.84E+03  3.14091E-02  6.44755E-02 -3.84776E-02
        16  H  -0.000358  -0.000460  -0.000033  1.84E+03  6.58146E-02 -1.02094E-02  1.69424E-03
        17  H   0.000420  -0.000031   0.001500  1.84E+03  1.31039E-03 -6.20198E-02 -1.56718E-02
 ----------------------------------------------------------------------------------------------
 
 
 
 


     Final Energy at time    206.6
     ============================

     Kinetic energy       3.374261130867E-02 a.u.
     Potential Energy    -2.887224824281E+02 a.u.
     Total Energy        -2.886887398168E+02 a.u.
 OPENED BYPASS FILE NROOTS
                     2
  -288.869525446692     
  -288.722482428085     
 OPENED BYPASS FILE ROOT ENERGIES
 *** First step of the Velocity Verlet algorithm ***
 OPENED BYPASS FILE COORDINATES
 nAtoms_Full=                    17
 OPENED BYPASS FILE GRADIENT
 OPENED BYPASS FILE COORDINATES
 nAtoms_Full=                    17
 OPENED BYPASS FILE GRADIENT
 
 
 
       Old Coordinates (time    206.6 a.u.):
 ----------------------------------------------------------------------------------------------
       No. Atom    X          Y          Z        Mass       F(x)         F(y)         F(z)
 ----------------------------------------------------------------------------------------------
         1  H   2.570730  -5.768739   0.733199  1.84E+03  3.51349E-02 -8.63311E-02 -5.18067E-02
         2  N   1.985403  -4.396654   1.615895  2.55E+04 -3.62556E-02  8.99689E-02  5.29644E-02
         3  H   2.595232  -4.089024   3.359966  1.84E+03  5.68028E-03 -9.38442E-03  1.34647E-02
         4  C  -2.266071   5.377330  -1.430782  2.19E+04 -1.38714E-02 -1.23620E-03 -4.70747E-02
         5  C  -1.474860   2.918907  -1.259980  2.19E+04  9.32690E-03  5.92813E-02  8.37584E-02
         6  C  -0.563575   2.051781   1.075725  2.19E+04 -9.62153E-03  6.95589E-02  6.78749E-02
         7  C   0.452624  -0.208384   1.911712  2.19E+04 -7.19948E-03 -2.91020E-02  2.85665E-02
         8  C   0.986086  -2.400081   0.442255  2.19E+04  7.33544E-03  7.82023E-04 -2.30380E-05
         9  H  -3.085002   6.381084  -3.005485  1.84E+03  3.02805E-03 -1.76728E-02 -1.35272E-02
        10  H  -0.776396   3.564213   2.928978  1.84E+03  8.68869E-03 -4.29166E-02 -6.79574E-02
        11  H  -2.287466   6.594357   0.029919  1.84E+03  1.01688E-02  3.23358E-02  6.02815E-02
        12  H   0.521273  -0.359411   4.061185  1.84E+03  4.59671E-03 -2.60128E-03 -3.87548E-02
        13  C   0.620830  -2.617744  -2.332518  2.19E+04 -1.01927E-01  1.30619E-02  4.64461E-02
        14  H  -1.957088   1.795999  -2.628911  1.84E+03 -1.36189E-02 -6.79906E-02 -8.17574E-02
        15  H   1.884603  -1.484287  -3.178362  1.84E+03  3.14091E-02  6.44755E-02 -3.84776E-02
        16  H  -1.609846  -2.271247  -2.802295  1.84E+03  6.58146E-02 -1.02094E-02  1.69424E-03
        17  H   1.308250  -4.295787  -2.963412  1.84E+03  1.31039E-03 -6.20198E-02 -1.56718E-02
 ----------------------------------------------------------------------------------------------
 
 
 
 
     Molecular Dynamics specifications (time =    206.6 a.u.)
     ==========================================

     Kinetic energy         0.3374D-01 a.u.
     Total linear momentum  0.6010D-01 a.u.
     RMS deviation          0.5754D-01 Bohr
 
 
 
       New Coordinates (time    247.9 a.u.):
 ----------------------------------------------------------------------------------------------
       No. Atom    X          Y          Z        Mass       F(x)         F(y)         F(z)
 ----------------------------------------------------------------------------------------------
         1  H   2.585778  -5.812875   0.672887  1.84E+03  3.51349E-02 -8.63311E-02 -5.18067E-02
         2  N   1.984822  -4.399496   1.622060  2.55E+04 -3.62556E-02  8.99689E-02  5.29644E-02
         3  H   2.668078  -4.084788   3.465828  1.84E+03  5.68028E-03 -9.38442E-03  1.34647E-02
         4  C  -2.265830   5.392444  -1.430814  2.19E+04 -1.38714E-02 -1.23620E-03 -4.70747E-02
         5  C  -1.476132   2.908747  -1.251161  2.19E+04  9.32690E-03  5.92813E-02  8.37584E-02
         6  C  -0.567766   2.069983   1.068901  2.19E+04 -9.62153E-03  6.95589E-02  6.78749E-02
         7  C   0.449887  -0.222062   1.912582  2.19E+04 -7.19948E-03 -2.91020E-02  2.85665E-02
         8  C   0.983987  -2.398590   0.429348  2.19E+04  7.33544E-03  7.82023E-04 -2.30380E-05
         9  H  -3.160539   6.437927  -3.073679  1.84E+03  3.02805E-03 -1.76728E-02 -1.35272E-02
        10  H  -0.771073   3.558110   2.952941  1.84E+03  8.68869E-03 -4.29166E-02 -6.79574E-02
        11  H  -2.246333   6.567681   0.072449  1.84E+03  1.01688E-02  3.23358E-02  6.02815E-02
        12  H   0.527036  -0.382095   4.013838  1.84E+03  4.59671E-03 -2.60128E-03 -3.87548E-02
        13  C   0.617911  -2.612422  -2.328609  2.19E+04 -1.01927E-01  1.30619E-02  4.64461E-02
        14  H  -1.938758   1.763684  -2.654636  1.84E+03 -1.36189E-02 -6.79906E-02 -8.17574E-02
        15  H   1.930953  -1.513472  -3.215183  1.84E+03  3.14091E-02  6.44755E-02 -3.84776E-02
        16  H  -1.594056  -2.295019  -2.802876  1.84E+03  6.58146E-02 -1.02094E-02  1.69424E-03
        17  H   1.326218  -4.325875  -2.908726  1.84E+03  1.31039E-03 -6.20198E-02 -1.56718E-02
 ----------------------------------------------------------------------------------------------
 
 
 
 
--- Stop Module: dynamix at Fri Jan 20 18:19:39 2023 /rc=_RC_ALL_IS_WELL_ ---
*** files: SSR2.2-PSB3-CH3-C8-011.md.energies SSR2.2-PSB3-CH3-C8-011.md.xyz xmldump
    saved to directory /users/PCON0010/danilk/An-OpenMolcas2023-Inter-Tests/PSB3-CH3-Tests/FRANDOM-1/PSB3-CH3-OpenMolcas

>>> COPY GEOMETRY.txt /users/PCON0010/danilk/An-OpenMolcas2023-Inter-Tests/PSB3-CH3-Tests/FRANDOM-1/PSB3-CH3-OpenMolcas/GEOMETRY.txt

>>> SHELL /users/PCON0010/danilk/An-OpenMolcas2023-Inter-Tests/PSB3-CH3-Tests/FRANDOM-1/PSB3-CH3-OpenMolcas/GUTS/update_gamess_geo.sh

>>> END FOREACH

>>> EXPORT A = 7

>>> SHELL /users/PCON0010/danilk/Apps/gamess-2021-ESPF-REKS-LINK/rungms-dev /users/PCON0010/danilk/An-OpenMolcas2023-Inter-Tests/PSB3-CH3-Tests/FRANDOM-1/PSB3-CH3-OpenMolcas/SSR2.2-PSB3-CH3-C8-011.G.tmp.inp 01 12 12 > /users/PCON0010/danilk/An-OpenMolcas2023-Inter-Tests/PSB3-CH3-Tests/FRANDOM-1/PSB3-CH3-OpenMolcas/SSR2.2-PSB3-CH3-C8-011.G.tmp.out

>>> SHELL /users/PCON0010/danilk/An-OpenMolcas2023-Inter-Tests/PSB3-CH3-Tests/FRANDOM-1/PSB3-CH3-OpenMolcas/GUTS/update_gamess_vec.sh

>>> SHELL /users/PCON0010/danilk/An-OpenMolcas2023-Inter-Tests/PSB3-CH3-Tests/FRANDOM-1/PSB3-CH3-OpenMolcas/GUTS/get_gradient.sh

>>> SHELL /users/PCON0010/danilk/An-OpenMolcas2023-Inter-Tests/PSB3-CH3-Tests/FRANDOM-1/PSB3-CH3-OpenMolcas/GUTS/get_pot_energy.sh

>>> SHELL /users/PCON0010/danilk/An-OpenMolcas2023-Inter-Tests/PSB3-CH3-Tests/FRANDOM-1/PSB3-CH3-OpenMolcas/GUTS/get_S0_and_S1_energy.sh

[...]
 ----------------------------------------------------------------------------------------------
         1  H  -0.000999  -0.000487   0.000179  1.84E+03 -1.69038E-02  4.68909E-02 -1.24584E-02
         2  N  -0.000317   0.001278  -0.001007  2.55E+04  5.31846E-02 -9.64935E-02 -8.32801E-03
         3  H  -0.002114  -0.000298   0.000791  1.84E+03 -1.15728E-02  3.68182E-02  6.44596E-03
         4  C  -0.000730  -0.000292  -0.000098  2.19E+04 -5.17680E-02  9.26893E-02  1.19861E-02
         5  C  -0.000519  -0.000222   0.000037  2.19E+04 -1.17066E-02 -5.59334E-02  6.11580E-02
         6  C   0.001542   0.000389   0.000523  2.19E+04 -2.35777E-02 -8.14402E-02 -9.33776E-02
         7  C  -0.000250   0.000195   0.000032  2.19E+04  3.91536E-02  3.18110E-02  5.04053E-03
         8  C   0.000273   0.000074  -0.000094  2.19E+04 -7.01473E-02  4.15311E-02  4.32253E-02
         9  H   0.000790  -0.003202   0.000897  1.84E+03  2.70228E-02 -3.20726E-02 -2.06945E-02
        10  H   0.000298  -0.000534   0.001098  1.84E+03  4.76563E-02  5.44994E-02  1.46218E-02
        11  H   0.000324   0.000815   0.000935  1.84E+03 -5.95850E-03 -1.95079E-02  1.37502E-02
        12  H   0.001764  -0.001047  -0.001873  1.84E+03 -2.25768E-02 -2.06466E-02  1.02697E-02
        13  C   0.000164  -0.000762   0.000354  2.19E+04  9.39533E-02 -4.98621E-03  1.61452E-02
        14  H  -0.001606  -0.000559   0.002871  1.84E+03  1.80951E-02  1.31384E-02 -1.46043E-02
        15  H  -0.000136  -0.004381   0.001055  1.84E+03 -4.99387E-02 -2.71460E-02  2.18458E-02
        16  H   0.001376  -0.001704  -0.000323  1.84E+03 -1.97678E-02 -1.24582E-02 -2.02259E-02
        17  H  -0.000991   0.000998  -0.000597  1.84E+03  4.85220E-03  3.33063E-02 -3.47997E-02
 ----------------------------------------------------------------------------------------------
 
 
 
 


     Final Energy at time   8181.8
     ============================

     Kinetic energy       1.484276913994E-01 a.u.
     Potential Energy    -2.888380395859E+02 a.u.
     Total Energy        -2.886896118945E+02 a.u.
 OPENED BYPASS FILE NROOTS
                     2
  -288.838039585912     
  -288.699356738021     
 OPENED BYPASS FILE ROOT ENERGIES
 *** First step of the Velocity Verlet algorithm ***
 OPENED BYPASS FILE COORDINATES
 nAtoms_Full=                    17
 OPENED BYPASS FILE GRADIENT
 OPENED BYPASS FILE COORDINATES
 nAtoms_Full=                    17
 OPENED BYPASS FILE GRADIENT
 
 
 
       Old Coordinates (time   8181.8 a.u.):
 ----------------------------------------------------------------------------------------------
       No. Atom    X          Y          Z        Mass       F(x)         F(y)         F(z)
 ----------------------------------------------------------------------------------------------
         1  H   0.558085  -5.472491   2.050934  1.84E+03 -1.69038E-02  4.68909E-02 -1.24584E-02
         2  N   0.048626  -3.524610   1.725749  2.55E+04  5.31846E-02 -9.64935E-02 -8.32801E-03
         3  H  -1.251652  -3.158216   3.008187  1.84E+03 -1.15728E-02  3.68182E-02  6.44596E-03
         4  C  -3.571751   4.885277   0.230223  2.19E+04 -5.17680E-02  9.26893E-02  1.19861E-02
         5  C  -1.426614   4.181248  -0.787094  2.19E+04 -1.17066E-02 -5.59334E-02  6.11580E-02
         6  C  -0.775578   1.772038   0.558293  2.19E+04 -2.35777E-02 -8.14402E-02 -9.33776E-02
         7  C   1.142221   0.252567  -0.423424  2.19E+04  3.91536E-02  3.18110E-02  5.04053E-03
         8  C   1.498978  -2.424604  -0.009129  2.19E+04 -7.01473E-02  4.15311E-02  4.32253E-02
         9  H  -4.741125   6.713850   0.097422  1.84E+03  2.70228E-02 -3.20726E-02 -2.06945E-02
        10  H  -2.574592   0.359163   0.945134  1.84E+03  4.76563E-02  5.44994E-02  1.46218E-02
        11  H  -4.269073   3.970409   1.846942  1.84E+03 -5.95850E-03 -1.95079E-02  1.37502E-02
        12  H   2.711022   1.278846  -1.449418  1.84E+03 -2.25768E-02 -2.06466E-02  1.02697E-02
        13  C   3.031416  -4.136086  -1.452006  2.19E+04  9.39533E-02 -4.98621E-03  1.61452E-02
        14  H  -0.508839   4.866097  -2.392500  1.84E+03  1.80951E-02  1.31384E-02 -1.46043E-02
        15  H   5.111708  -3.225079  -1.830719  1.84E+03 -4.99387E-02 -2.71460E-02  2.18458E-02
        16  H   2.474212  -4.178800  -3.366265  1.84E+03 -1.97678E-02 -1.24582E-02 -2.02259E-02
        17  H   3.128052  -6.046640  -0.391620  1.84E+03  4.85220E-03  3.33063E-02 -3.47997E-02
 ----------------------------------------------------------------------------------------------
 
 
 
 
     Molecular Dynamics specifications (time =   8181.8 a.u.)
     ==========================================

     Kinetic energy         0.1484D+00 a.u.
     Total linear momentum  0.6120D-01 a.u.
     RMS deviation          0.9071D-01 Bohr
 
 
 
       New Coordinates (time   8223.1 a.u.):
 ----------------------------------------------------------------------------------------------
       No. Atom    X          Y          Z        Mass       F(x)         F(y)         F(z)
 ----------------------------------------------------------------------------------------------
         1  H   0.508963  -5.470838   2.052545  1.84E+03 -1.69038E-02  4.68909E-02 -1.24584E-02
         2  N   0.037300  -3.475014   1.683870  2.55E+04  5.31846E-02 -9.64935E-02 -8.32801E-03
         3  H  -1.344379  -3.153423   3.043861  1.84E+03 -1.15728E-02  3.68182E-02  6.44596E-03
         4  C  -3.603934   4.876847   0.226659  2.19E+04 -5.17680E-02  9.26893E-02  1.19861E-02
         5  C  -1.448516   4.169881  -0.783196  2.19E+04 -1.17066E-02 -5.59334E-02  6.11580E-02
         6  C  -0.712794   1.784952   0.576248  2.19E+04 -2.35777E-02 -8.14402E-02 -9.33776E-02
         7  C   1.133398   0.261872  -0.421924  2.19E+04  3.91536E-02  3.18110E-02  5.04053E-03
         8  C   1.507541  -2.419915  -0.011345  2.19E+04 -7.01473E-02  4.15311E-02  4.32253E-02
         9  H  -4.695926   6.566632   0.124862  1.84E+03  2.70228E-02 -3.20726E-02 -2.06945E-02
        10  H  -2.540138   0.362414   0.997316  1.84E+03  4.76563E-02  5.44994E-02  1.46218E-02
        11  H  -4.258445   3.995030   1.891972  1.84E+03 -5.95850E-03 -1.95079E-02  1.37502E-02
        12  H   2.773407   1.225979  -1.522041  1.84E+03 -2.25768E-02 -2.06466E-02  1.02697E-02
        13  C   3.041859  -4.167773  -1.436752  2.19E+04  9.39533E-02 -4.98621E-03  1.61452E-02
        14  H  -0.566773   4.849088  -2.280664  1.84E+03  1.80951E-02  1.31384E-02 -1.46043E-02
        15  H   5.082865  -3.418727  -1.776968  1.84E+03 -4.99387E-02 -2.71460E-02  2.18458E-02
        16  H   2.521870  -4.254990  -3.388996  1.84E+03 -1.97678E-02 -1.24582E-02 -2.02259E-02
        17  H   3.089347  -5.989909  -0.432461  1.84E+03  4.85220E-03  3.33063E-02 -3.47997E-02
 ----------------------------------------------------------------------------------------------
 
 
 
 
--- Stop Module: dynamix at Fri Jan 20 22:44:31 2023 /rc=_RC_ALL_IS_WELL_ ---
*** files: SSR2.2-PSB3-CH3-C8-011.md.energies SSR2.2-PSB3-CH3-C8-011.md.xyz xmldump
    saved to directory /users/PCON0010/danilk/An-OpenMolcas2023-Inter-Tests/PSB3-CH3-Tests/FRANDOM-1/PSB3-CH3-OpenMolcas
--- Module dynamix spent 8 seconds ---

>>> COPY GEOMETRY.txt /users/PCON0010/danilk/An-OpenMolcas2023-Inter-Tests/PSB3-CH3-Tests/FRANDOM-1/PSB3-CH3-OpenMolcas/GEOMETRY.txt

>>> SHELL /users/PCON0010/danilk/An-OpenMolcas2023-Inter-Tests/PSB3-CH3-Tests/FRANDOM-1/PSB3-CH3-OpenMolcas/GUTS/update_gamess_geo.sh

>>> END FOREACH

>>> EXPORT A = 200

>>> SHELL /users/PCON0010/danilk/Apps/gamess-2021-ESPF-REKS-LINK/rungms-dev /users/PCON0010/danilk/An-OpenMolcas2023-Inter-Tests/PSB3-CH3-Tests/FRANDOM-1/PSB3-CH3-OpenMolcas/SSR2.2-PSB3-CH3-C8-011.G.tmp.inp 01 12 12 > /users/PCON0010/danilk/An-OpenMolcas2023-Inter-Tests/PSB3-CH3-Tests/FRANDOM-1/PSB3-CH3-OpenMolcas/SSR2.2-PSB3-CH3-C8-011.G.tmp.out

>>> SHELL /users/PCON0010/danilk/An-OpenMolcas2023-Inter-Tests/PSB3-CH3-Tests/FRANDOM-1/PSB3-CH3-OpenMolcas/GUTS/update_gamess_vec.sh

>>> SHELL /users/PCON0010/danilk/An-OpenMolcas2023-Inter-Tests/PSB3-CH3-Tests/FRANDOM-1/PSB3-CH3-OpenMolcas/GUTS/get_gradient.sh

>>> SHELL /users/PCON0010/danilk/An-OpenMolcas2023-Inter-Tests/PSB3-CH3-Tests/FRANDOM-1/PSB3-CH3-OpenMolcas/GUTS/get_pot_energy.sh

>>> SHELL /users/PCON0010/danilk/An-OpenMolcas2023-Inter-Tests/PSB3-CH3-Tests/FRANDOM-1/PSB3-CH3-OpenMolcas/GUTS/get_S0_and_S1_energy.sh

>>> SHELL /users/PCON0010/danilk/An-OpenMolcas2023-Inter-Tests/PSB3-CH3-Tests/FRANDOM-1/PSB3-CH3-OpenMolcas/GUTS/get_S0_and_S1_coeff.sh

>>> COPY /users/PCON0010/danilk/An-OpenMolcas2023-Inter-Tests/PSB3-CH3-Tests/FRANDOM-1/PSB3-CH3-OpenMolcas/GRADIENT.txt .

>>> COPY /users/PCON0010/danilk/An-OpenMolcas2023-Inter-Tests/PSB3-CH3-Tests/FRANDOM-1/PSB3-CH3-OpenMolcas/POT_ENERGY.txt .

>>> COPY /users/PCON0010/danilk/An-OpenMolcas2023-Inter-Tests/PSB3-CH3-Tests/FRANDOM-1/PSB3-CH3-OpenMolcas/ROOTS_E.txt .

>>> COPY /users/PCON0010/danilk/An-OpenMolcas2023-Inter-Tests/PSB3-CH3-Tests/FRANDOM-1/PSB3-CH3-OpenMolcas/ROOTS_C.txt .

--- Start Module: surfacehop at Fri Jan 20 22:45:40 2023 ---
 
()()()()()()()()()()()()()()()()()()()()()()()()()()()()()()()()()()()()()()()()()()()()()()()()()()

                                            &SURFACEHOP

                                   only a single process is used
                       available to each process: 5.0 GB of memory, 1 thread?
                                            pid: 112251
()()()()()()()()()()()()()()()()()()()()()()()()()()()()()()()()()()()()()()()()()()()()()()()()()()
 
 OPENED BYPASS FILE ROOT COEFFICIENTS
 
 ------------------------------------------
             TULLY ALGORITHM
 ------------------------------------------
 
 OPENED BYPASS FILE ROOT ENERGIES
 Using CI vector product for WF overlap
 
 Did the density matrix exists?  T
 Did the Pre-coefficients array exists?  T
 Did the Pre-Pre-coefficients array exists?  T
 Density Matrix elements (i=1..#states):
 (0.999999518021022,0.000000000000000E+000)
 (5.521784457385427E-004,4.314154477839981E-004)
 (5.521784457385529E-004,-4.314154477839812E-004)
 (4.819789781758292E-007,-7.188793621319393E-153)
 BeforeFunctionsCoefficients are:                      2 *                     2
 -0.999873690000000       0.999982240000000       0.999991280000000     
  1.589350000000000E-002 -5.959640000000000E-003 -4.175700000000000E-003
 -1.589350000000000E-002 -5.959640000000000E-003 -4.175700000000000E-003
 -0.999873690000000      -0.999982240000000      -0.999991280000000     
 Using CI vector products for sign correction/root ordering
 Using CI vector product to calculate D Matrix
 AfterFunctionsCoefficients are:                      2 *                     2
  0.999873690000000       0.999982240000000       0.999991280000000     
 -1.589350000000000E-002 -5.959640000000000E-003 -4.175700000000000E-003
 -1.589350000000000E-002 -5.959640000000000E-003 -4.175700000000000E-003
 -0.999873690000000      -0.999982240000000      -0.999991280000000     
 From input Random is Fixed at:   1.00000000000000     
 Normalized by Substep number:  5.025125628140704E-003
 executing the integration:
 Time Step is:       41.3223140000000     
 Substeps are:                    199
 Gnuplot:  0.999996208114170       3.791885829813159E-006
  -288.834141345213       -288.694234950078       -288.834141345213     
--- Stop Module: surfacehop at Fri Jan 20 22:45:40 2023 /rc=_RC_ALL_IS_WELL_ ---
*** files: xmldump
    saved to directory /users/PCON0010/danilk/An-OpenMolcas2023-Inter-Tests/PSB3-CH3-Tests/FRANDOM-1/PSB3-CH3-OpenMolcas

>>> IF (-FILE HOP.txt)
(Skipped)

--- Start Module: dynamix at Fri Jan 20 22:45:40 2023 ---
 
()()()()()()()()()()()()()()()()()()()()()()()()()()()()()()()()()()()()()()()()()()()()()()()()()()

                                              &DYNAMIX

                                   only a single process is used
                       available to each process: 5.0 GB of memory, 1 thread?
                                            pid: 112255
()()()()()()()()()()()()()()()()()()()()()()()()()()()()()()()()()()()()()()()()()()()()()()()()()()
 
 
 *** Second step of the Velocity Verlet algorithm ***
 OPENED BYPASS FILE COORDINATES
 nAtoms_Full=                    17
 OPENED BYPASS FILE GRADIENT
 
 
 
       Velocities      (time   8223.1 a.u.):
 ----------------------------------------------------------------------------------------------
       No. Atom    X          Y          Z        Mass       F(x)         F(y)         F(z)
 ----------------------------------------------------------------------------------------------
         1  H  -0.001368   0.000684  -0.000157  1.84E+03 -1.59325E-02  5.72735E-02 -1.73974E-02
         2  N  -0.000264   0.001108  -0.000979  2.55E+04  1.27218E-02 -1.14387E-01  4.23329E-02
         3  H  -0.002009   0.000467   0.000561  1.84E+03  2.08982E-02  3.11980E-02 -2.68416E-02
         4  C  -0.000797  -0.000162  -0.000066  2.19E+04 -1.92686E-02  4.48058E-02  2.17858E-02
         5  C  -0.000566  -0.000343   0.000198  2.19E+04 -3.85648E-02 -7.20768E-02  1.09574E-01
         6  C   0.001473   0.000244   0.000353  2.19E+04 -4.94591E-02 -7.23480E-02 -8.59842E-02
         7  C  -0.000145   0.000250   0.000023  2.19E+04  7.30441E-02  2.61110E-02 -1.43692E-02
         8  C   0.000146   0.000158  -0.000025  2.19E+04 -6.52047E-02  4.73751E-02  3.07080E-02
         9  H   0.001083  -0.003431   0.000344  1.84E+03 -9.64700E-04  1.17335E-02 -2.84335E-02
        10  H   0.001414   0.000713   0.001414  1.84E+03  5.15816E-02  5.63683E-02  1.34841E-02
        11  H   0.000213   0.000360   0.001211  1.84E+03 -3.94230E-03 -2.09870E-02  1.07608E-02
        12  H   0.001105  -0.001521  -0.001541  1.84E+03 -3.60034E-02 -2.14702E-02  1.92622E-02
        13  C   0.000324  -0.000760   0.000365  2.19E+04  7.54453E-02  6.93806E-03 -4.53539E-03
        14  H  -0.000889  -0.000029   0.002003  1.84E+03  4.56075E-02  3.40337E-02 -6.25669E-02
        15  H  -0.001092  -0.004830   0.001518  1.84E+03 -3.50354E-02 -1.28072E-02  1.93125E-02
        16  H   0.000939  -0.001942  -0.000649  1.84E+03 -1.90480E-02 -8.70701E-03 -8.79936E-03
        17  H  -0.000890   0.001451  -0.001194  1.84E+03  4.12485E-03  6.94595E-03 -1.82925E-02
 ----------------------------------------------------------------------------------------------
 
 
 
 


     Final Energy at time   8223.1
     ============================

     Kinetic energy       1.445112976084E-01 a.u.
     Potential Energy    -2.888341413452E+02 a.u.
     Total Energy        -2.886896300476E+02 a.u.
 OPENED BYPASS FILE NROOTS
                     2
  -288.834141345213     
  -288.694234950078     
 OPENED BYPASS FILE ROOT ENERGIES
 *** First step of the Velocity Verlet algorithm ***
 OPENED BYPASS FILE COORDINATES
 nAtoms_Full=                    17
 OPENED BYPASS FILE GRADIENT
 OPENED BYPASS FILE COORDINATES
 nAtoms_Full=                    17
 OPENED BYPASS FILE GRADIENT
 
 
 
       Old Coordinates (time   8223.1 a.u.):
 ----------------------------------------------------------------------------------------------
       No. Atom    X          Y          Z        Mass       F(x)         F(y)         F(z)
 ----------------------------------------------------------------------------------------------
         1  H   0.508963  -5.470838   2.052545  1.84E+03 -1.59325E-02  5.72735E-02 -1.73974E-02
         2  N   0.037300  -3.475014   1.683870  2.55E+04  1.27218E-02 -1.14387E-01  4.23329E-02
         3  H  -1.344379  -3.153423   3.043861  1.84E+03  2.08982E-02  3.11980E-02 -2.68416E-02
         4  C  -3.603934   4.876847   0.226659  2.19E+04 -1.92686E-02  4.48058E-02  2.17858E-02
         5  C  -1.448516   4.169881  -0.783196  2.19E+04 -3.85648E-02 -7.20768E-02  1.09574E-01
         6  C  -0.712794   1.784952   0.576248  2.19E+04 -4.94591E-02 -7.23480E-02 -8.59842E-02
         7  C   1.133398   0.261872  -0.421924  2.19E+04  7.30441E-02  2.61110E-02 -1.43692E-02
         8  C   1.507541  -2.419915  -0.011345  2.19E+04 -6.52047E-02  4.73751E-02  3.07080E-02
         9  H  -4.695926   6.566632   0.124862  1.84E+03 -9.64700E-04  1.17335E-02 -2.84335E-02
        10  H  -2.540138   0.362414   0.997316  1.84E+03  5.15816E-02  5.63683E-02  1.34841E-02
        11  H  -4.258445   3.995030   1.891972  1.84E+03 -3.94230E-03 -2.09870E-02  1.07608E-02
        12  H   2.773407   1.225979  -1.522041  1.84E+03 -3.60034E-02 -2.14702E-02  1.92622E-02
        13  C   3.041859  -4.167773  -1.436752  2.19E+04  7.54453E-02  6.93806E-03 -4.53539E-03
        14  H  -0.566773   4.849088  -2.280664  1.84E+03  4.56075E-02  3.40337E-02 -6.25669E-02
        15  H   5.082865  -3.418727  -1.776968  1.84E+03 -3.50354E-02 -1.28072E-02  1.93125E-02
        16  H   2.521870  -4.254990  -3.388996  1.84E+03 -1.90480E-02 -8.70701E-03 -8.79936E-03
        17  H   3.089347  -5.989909  -0.432461  1.84E+03  4.12485E-03  6.94595E-03 -1.82925E-02
 ----------------------------------------------------------------------------------------------
 
 
 
 
     Molecular Dynamics specifications (time =   8223.1 a.u.)
     ==========================================

     Kinetic energy         0.1445D+00 a.u.
     Total linear momentum  0.6120D-01 a.u.
     RMS deviation          0.9196D-01 Bohr
 
 
 
       New Coordinates (time   8264.5 a.u.):
 ----------------------------------------------------------------------------------------------
       No. Atom    X          Y          Z        Mass       F(x)         F(y)         F(z)
 ----------------------------------------------------------------------------------------------
         1  H   0.445033  -5.415953   2.037985  1.84E+03 -1.59325E-02  5.72735E-02 -1.73974E-02
         2  N   0.026825  -3.433069   1.644823  2.55E+04  1.27218E-02 -1.14387E-01  4.23329E-02
         3  H  -1.417683  -3.119634   3.054587  1.84E+03  2.08982E-02  3.11980E-02 -2.68416E-02
         4  C  -3.637621   4.871915   0.224795  2.19E+04 -1.92686E-02  4.48058E-02  2.17858E-02
         5  C  -1.473428   4.152887  -0.770745  2.19E+04 -3.85648E-02 -7.20768E-02  1.09574E-01
         6  C  -0.653871   1.792217   0.587491  2.19E+04 -4.94591E-02 -7.23480E-02 -8.59842E-02
         7  C   1.130277   0.273215  -0.421545  2.19E+04  7.30441E-02  2.61110E-02 -1.43692E-02
         8  C   1.511013  -2.411527  -0.011163  2.19E+04 -6.52047E-02  4.73751E-02  3.07080E-02
         9  H  -4.651624   6.430320   0.125875  1.84E+03 -9.64700E-04  1.17335E-02 -2.84335E-02
        10  H  -2.457742   0.418057   1.062031  1.84E+03  5.15816E-02  5.63683E-02  1.34841E-02
        11  H  -4.251481   4.000145   1.947003  1.84E+03 -3.94230E-03 -2.09870E-02  1.07608E-02
        12  H   2.802328   1.153157  -1.576762  1.84E+03 -3.60034E-02 -2.14702E-02  1.92622E-02
        13  C   3.058192  -4.198918  -1.421852  2.19E+04  7.54453E-02  6.93806E-03 -4.53539E-03
        14  H  -0.582317   4.863712  -2.226981  1.84E+03  4.56075E-02  3.40337E-02 -6.25669E-02
        15  H   5.021459  -3.624279  -1.705268  1.84E+03 -3.50354E-02 -1.28072E-02  1.93125E-02
        16  H   2.551824  -4.339272  -3.419906  1.84E+03 -1.90480E-02 -8.70701E-03 -8.79936E-03
        17  H   3.054476  -5.926722  -0.490304  1.84E+03  4.12485E-03  6.94595E-03 -1.82925E-02
 ----------------------------------------------------------------------------------------------
 
 
 
 
--- Stop Module: dynamix at Fri Jan 20 22:45:41 2023 /rc=_RC_ALL_IS_WELL_ ---
*** files: SSR2.2-PSB3-CH3-C8-011.md.energies SSR2.2-PSB3-CH3-C8-011.md.xyz xmldump
    saved to directory /users/PCON0010/danilk/An-OpenMolcas2023-Inter-Tests/PSB3-CH3-Tests/FRANDOM-1/PSB3-CH3-OpenMolcas

>>> COPY GEOMETRY.txt /users/PCON0010/danilk/An-OpenMolcas2023-Inter-Tests/PSB3-CH3-Tests/FRANDOM-1/PSB3-CH3-OpenMolcas/GEOMETRY.txt

>>> SHELL /users/PCON0010/danilk/An-OpenMolcas2023-Inter-Tests/PSB3-CH3-Tests/FRANDOM-1/PSB3-CH3-OpenMolcas/GUTS/update_gamess_geo.sh

>>> END FOREACH

.##################.
.# Happy landing! #.
.##################.

    Timing: Wall=988.00 User=32.73 System=7.56
